ITEM: TIMESTEP
0
ITEM: NUMBER OF ATOMS
940
ITEM: BOX BOUNDS pp pp pp
-1.0000000000000000e+02 1.0000000000000000e+02
-1.0000000000000000e+02 1.0000000000000000e+02
-1.0000000000000000e+02 1.0000000000000000e+02
ITEM: ATOMS id type xs ys zs
11 1 0.149536 0.331252 0.0202176
13 3 0.154078 0.329821 0.0252982
14 3 0.150308 0.32715 0.0146447
15 4 0.158933 0.32541 0.0225262
16 4 0.154723 0.321901 0.0165579
17 5 0.160004 0.324213 0.0243479
18 5 0.160693 0.326983 0.0220645
19 5 0.15312 0.320164 0.017005
20 5 0.155706 0.320959 0.014546
12 2 0.144714 0.336274 0.0206657
41 1 0.221375 0.123932 0.055185
42 2 0.217209 0.127133 0.0597755
43 3 0.228247 0.123234 0.0560672
44 3 0.219094 0.121101 0.0492465
45 4 0.23089 0.120951 0.0498614
46 4 0.224463 0.117223 0.0466287
48 5 0.231709 0.123034 0.0489788
49 5 0.223779 0.115036 0.0473622
50 5 0.224096 0.116923 0.0442464
47 5 0.233031 0.119887 0.0502894
594 717 0.465369 0.00328859 0.124161
604 720 0.462782 0.00488042 0.119602
605 720 0.462868 0.00545119 0.128575
593 719 0.472948 0.00511642 0.123656
601 722 0.476352 0.0016372 0.121003
602 722 0.473713 0.00983892 0.120998
603 722 0.475021 0.00577851 0.12868
871 411 0.689173 0.000500399 0.199688
878 88 0.687424 0.00883408 0.196711
873 92 0.699521 0.000585612 0.192998
908 88 0.69985 0.0195359 0.178166
810 410 0.677776 0.00496242 0.194398
910 88 0.704641 0.0204089 0.177585
929 409 0.730274 0.00532195 0.190611
927 85 0.727088 0.0153176 0.197452
904 92 0.719359 0.0102783 0.181695
903 92 0.721036 0.00800799 0.182902
889 92 0.70824 0.00496667 0.186003
902 412 0.702002 0.0221372 0.183124
901 411 0.705861 0.0172691 0.185045
899 409 0.708314 0.016875 0.192526
896 84 0.720506 0.0115129 0.188633
900 410 0.705654 0.0203854 0.197541
909 88 0.700985 0.0261186 0.189292
897 87 0.714429 0.010779 0.195007
888 92 0.706226 0.000597073 0.182114
881 84 0.710586 0.00183648 0.187821
930 410 0.73509 0.00775429 0.186211
341 719 0.261287 0.442653 0.175629
349 722 0.259455 0.441638 0.180761
350 722 0.256968 0.445012 0.173234
351 722 0.261954 0.437776 0.173232
352 720 0.266497 0.452254 0.174901
342 717 0.267766 0.446927 0.174739
343 716 0.272514 0.445472 0.179698
344 715 0.275537 0.450455 0.182832
345 714 0.275436 0.456288 0.18299
346 716 0.278392 0.447533 0.185711
347 717 0.283855 0.44766 0.190882
348 719 0.27978 0.442076 0.193776
353 720 0.270526 0.445808 0.170097
354 720 0.288361 0.444559 0.192606
355 720 0.284885 0.452825 0.192109
357 722 0.276437 0.446329 0.197819
358 722 0.282059 0.43679 0.189163
356 722 0.278861 0.440871 0.199105
793 83 0.666465 0.0260475 0.225729
800 88 0.665244 0.0296511 0.229467
801 88 0.665449 0.0212695 0.228251
802 88 0.661438 0.0263098 0.222764
925 88 0.660569 0.000633959 0.208702
924 88 0.656869 0.00212673 0.215902
923 88 0.65323 0.00309331 0.207924
917 412 0.657531 0.00437374 0.210958
916 411 0.659831 0.0114457 0.210982
914 409 0.665969 0.0133965 0.207432
815 88 0.689708 0.0260377 0.203293
880 88 0.685094 0.00254831 0.205666
809 409 0.6757 0.00715436 0.201891
791 84 0.681156 0.0281016 0.224467
792 87 0.673868 0.0264351 0.221538
806 84 0.684308 0.0149274 0.22537
807 87 0.682359 0.0164669 0.21755
808 83 0.691315 0.0253886 0.216231
813 92 0.680485 0.0138664 0.223022
814 92 0.679698 0.0138406 0.225613
816 88 0.694969 0.026999 0.222383
821 84 0.694224 0.0136435 0.226494
822 87 0.688107 0.0104657 0.229405
824 409 0.686221 0.00292261 0.227396
826 411 0.681666 0.00130022 0.222046
828 92 0.695674 0.00982952 0.22927
829 92 0.694905 0.0161765 0.230717
837 87 0.698201 0.0142724 0.218921
838 83 0.697306 0.0156338 0.212157
843 92 0.691847 0.00586426 0.215248
845 88 0.697741 0.0194636 0.208789
846 88 0.695006 0.0175964 0.208807
847 88 0.696834 0.0187205 0.208743
922 88 0.679691 0.0192199 0.202846
921 88 0.679357 0.0178242 0.202941
919 92 0.67407 0.0251605 0.212589
918 92 0.670363 0.0184279 0.216582
872 412 0.688576 0.0050063 0.201568
915 410 0.667244 0.0100283 0.203434
913 83 0.684647 0.0138813 0.207822
912 85 0.673771 0.0174444 0.209438
879 88 0.685312 0.00286214 0.206183
911 83 0.670935 0.0229598 0.214842
836 84 0.696401 0.00901674 0.214081
844 92 0.691853 0.00705294 0.216936
794 409 0.682825 0.0257597 0.222175
795 410 0.680953 0.0312071 0.216501
799 92 0.679238 0.0328909 0.229379
817 88 0.693735 0.026739 0.224442
937 88 0.724458 0.0261397 0.200264
855 410 0.714971 0.00198131 0.217305
797 412 0.716787 0.0110853 0.231306
804 88 0.721487 0.00738498 0.228909
934 92 0.731465 0.0188784 0.215262
839 409 0.704756 0.0175899 0.2178
840 410 0.707907 0.0125062 0.21906
841 411 0.706928 0.0248036 0.214259
842 412 0.710548 0.0291357 0.213274
848 88 0.713679 0.0271441 0.211628
849 88 0.710456 0.031838 0.217339
850 88 0.711388 0.0306229 0.208458
852 87 0.70517 0.00501334 0.208868
853 83 0.704501 0.0093867 0.20496
854 409 0.713588 0.00312472 0.211832
856 411 0.720228 0.00287187 0.209656
857 412 0.725092 0.00545297 0.212275
860 88 0.706297 0.0125875 0.204155
861 88 0.70173 0.00957926 0.201229
862 88 0.705651 0.00798106 0.202334
863 88 0.726635 0.0064544 0.216549
864 88 0.725184 0.00760661 0.208951
865 88 0.729243 0.00376129 0.210711
936 88 0.726622 0.0308961 0.212308
935 88 0.725437 0.0301896 0.213259
928 83 0.725949 0.0259137 0.206367
907 88 0.717646 0.0123075 0.201279
796 411 0.706256 0.0155579 0.229406
926 83 0.731929 0.0172878 0.20708
906 88 0.717662 0.01682 0.218344
905 88 0.716881 0.0178351 0.219095
898 83 0.71587 0.0151236 0.209949
920 88 0.70075 0.000482049 0.218921
933 92 0.734013 0.0131607 0.202298
798 92 0.684365 0.0359609 0.224605
31 1 0.665543 0.266072 0.218099
32 2 0.662674 0.260799 0.214543
33 3 0.671316 0.265424 0.221939
34 3 0.662932 0.272526 0.21818
40 5 0.666771 0.278696 0.222011
35 4 0.671903 0.271391 0.225781
36 4 0.667867 0.276697 0.221174
37 5 0.674222 0.271637 0.226458
38 5 0.671011 0.270614 0.227876
39 5 0.668852 0.277645 0.219195
287 719 0.177511 0.376389 0.225218
288 717 0.183172 0.37353 0.229781
295 722 0.173752 0.379791 0.22746
296 722 0.179548 0.379363 0.221099
297 722 0.174711 0.372266 0.222955
298 720 0.187263 0.377156 0.230135
299 720 0.185134 0.368666 0.228075
823 83 0.687597 0.0106332 0.237989
830 88 0.683175 0.00842938 0.239124
831 88 0.687698 0.0154389 0.240649
832 88 0.691351 0.00770018 0.241156
803 88 0.722717 0.0126828 0.233685
805 88 0.71651 0.00944455 0.236373
269 719 0.395632 0.0885553 0.257031
270 717 0.393738 0.0863117 0.264271
277 722 0.395618 0.0939681 0.255835
279 722 0.392277 0.0861659 0.253425
281 720 0.391599 0.0812341 0.264518
278 722 0.400718 0.0870254 0.255709
304 722 0.171378 0.36585 0.247586
289 716 0.180785 0.372018 0.236205
290 715 0.184256 0.37399 0.241484
291 714 0.189071 0.377048 0.242717
292 716 0.181146 0.372006 0.244855
293 717 0.180173 0.370891 0.252232
294 719 0.173063 0.37244 0.250442
300 720 0.177878 0.367073 0.255844
301 720 0.184201 0.373372 0.254851
302 722 0.169279 0.375208 0.253395
303 722 0.173878 0.378967 0.251968
267 722 0.765929 0.433279 0.253751
255 714 0.771577 0.421197 0.265676
265 720 0.777041 0.429144 0.256113
256 716 0.771086 0.430764 0.264658
266 722 0.76626 0.439369 0.253402
257 717 0.774889 0.433369 0.258712
258 719 0.768781 0.437656 0.25803
264 720 0.777723 0.438053 0.257004
268 722 0.770491 0.442535 0.263292
271 716 0.38857 0.0902509 0.26692
286 722 0.374481 0.0977838 0.267822
272 715 0.38915 0.0926258 0.27307
273 714 0.393023 0.09269 0.277436
274 716 0.384717 0.094931 0.2731
280 720 0.398146 0.0866229 0.26751
283 720 0.382467 0.099806 0.282171
275 717 0.380022 0.0989059 0.277433
282 720 0.374405 0.0997548 0.278216
376 722 0.487696 0.078644 0.297872
276 719 0.378995 0.102658 0.271028
284 722 0.37815 0.108085 0.270299
285 722 0.383702 0.107206 0.272691
251 719 0.756357 0.427797 0.278524
252 717 0.763808 0.425874 0.277179
253 716 0.766543 0.429667 0.271946
259 722 0.753097 0.428991 0.274203
260 722 0.753646 0.423748 0.281018
261 722 0.756147 0.43213 0.281864
262 720 0.764147 0.420541 0.27597
254 715 0.77001 0.426606 0.267212
263 720 0.767183 0.427051 0.281379
371 720 0.472794 0.0599116 0.300091
370 720 0.47197 0.0609272 0.308987
369 722 0.483118 0.0536494 0.301518
359 719 0.481081 0.0555107 0.306246
360 717 0.475511 0.0607971 0.304809
367 722 0.485428 0.0570038 0.309344
368 722 0.479101 0.0511708 0.30893
361 716 0.478225 0.0671903 0.303803
375 722 0.487304 0.0813443 0.311659
374 722 0.491482 0.0829577 0.307504
373 720 0.47663 0.0856623 0.307975
372 720 0.482144 0.087078 0.30103
362 715 0.475506 0.0723724 0.306896
363 714 0.471252 0.0734991 0.310728
364 716 0.47861 0.0757644 0.304938
365 717 0.480062 0.0831406 0.304643
366 719 0.487132 0.080676 0.304941
324 717 0.416211 0.297951 0.397139
327 714 0.419501 0.283753 0.395678
334 720 0.418443 0.296022 0.392523
335 720 0.410798 0.298716 0.396414
323 719 0.420002 0.304398 0.399399
332 722 0.421633 0.307387 0.395114
325 716 0.416377 0.292992 0.402102
326 715 0.417904 0.286779 0.400406
328 716 0.41743 0.284907 0.405015
329 717 0.417673 0.278516 0.408976
330 719 0.421041 0.282985 0.41396
336 720 0.415255 0.276091 0.413576
337 720 0.419151 0.274527 0.405638
338 722 0.425198 0.281786 0.417422
339 722 0.42716 0.281292 0.411658
340 722 0.414946 0.286242 0.41654
331 722 0.424652 0.303846 0.402365
333 722 0.416651 0.307566 0.40235
2 2 0.0868044 0.363843 0.407483
9 5 0.0914861 0.380145 0.400007
1 1 0.0903636 0.36961 0.405824
3 3 0.0972037 0.369663 0.404522
4 3 0.0874457 0.37591 0.4053
5 4 0.0992055 0.376495 0.404352
6 4 0.0922875 0.380167 0.402275
10 5 0.0917286 0.382467 0.402821
7 5 0.10128 0.376651 0.403099
8 5 0.100122 0.376704 0.406566
311 717 0.965987 0.0991058 0.493366
321 722 0.959739 0.099002 0.48525
310 716 0.959754 0.0988863 0.497573
319 720 0.967795 0.0940433 0.492778
312 719 0.961843 0.103913 0.489381
313 722 0.939704 0.102637 0.498916
320 722 0.961701 0.104625 0.483888
322 722 0.962692 0.109749 0.493812
318 720 0.970333 0.102632 0.492111
21 1 0.868545 0.231139 0.487961
23 3 0.869521 0.23005 0.494769
24 3 0.871556 0.22629 0.483972
25 4 0.874465 0.224958 0.495343
26 4 0.87357 0.221021 0.488318
27 5 0.874254 0.223933 0.497535
28 5 0.8764 0.226319 0.495783
29 5 0.871753 0.219485 0.487962
30 5 0.875322 0.21975 0.487216
22 2 0.864924 0.236525 0.485402
306 717 0.947435 0.0988764 0.506623
314 722 0.93639 0.0994945 0.506221
316 720 0.946832 0.0934324 0.506733
309 714 0.957407 0.0900309 0.500552
308 715 0.95681 0.0958263 0.500208
305 719 0.940751 0.102217 0.504343
307 716 0.952751 0.100585 0.502371
315 722 0.940441 0.107291 0.506375
317 720 0.949228 0.100652 0.511527
433 716 0.230217 0.399586 0.513742
441 722 0.23271 0.390975 0.502246
439 722 0.233369 0.39959 0.50046
431 719 0.235552 0.395488 0.503482
432 717 0.235907 0.396328 0.511241
440 722 0.240528 0.394869 0.501289
442 720 0.2404 0.399161 0.512585
443 720 0.23583 0.391544 0.513983
448 722 0.214752 0.402889 0.516194
434 715 0.230973 0.404525 0.518082
436 716 0.226085 0.405395 0.518656
437 717 0.221113 0.409558 0.522471
438 719 0.217685 0.409646 0.515808
444 720 0.215802 0.409217 0.524608
445 720 0.223861 0.413071 0.525529
446 722 0.214819 0.41376 0.51345
447 722 0.220641 0.415481 0.514128
435 714 0.235263 0.407516 0.520673
764 722 0.103348 0.499491 0.530595
766 720 0.103776 0.499377 0.518518
412 722 0.466539 0.0663197 0.588325
407 720 0.487783 0.0636075 0.577407
410 722 0.464397 0.0766168 0.592212
395 719 0.484355 0.0722346 0.571103
396 717 0.486504 0.0689535 0.577859
397 716 0.481215 0.0688494 0.58247
398 715 0.482325 0.0707917 0.588699
399 714 0.486662 0.0729627 0.591946
400 716 0.477661 0.0699556 0.590287
401 717 0.47326 0.0700841 0.596387
402 719 0.468307 0.0727665 0.591445
403 722 0.480937 0.0765966 0.571234
404 722 0.488667 0.0741438 0.568324
405 722 0.481957 0.068485 0.567915
406 720 0.490747 0.0716987 0.579975
408 720 0.468748 0.0673384 0.598622
411 722 0.469905 0.0791444 0.592986
409 720 0.47616 0.0720432 0.600509
457 722 0.377979 0.28491 0.628007
452 715 0.384355 0.30142 0.633244
454 716 0.381465 0.304827 0.631006
455 717 0.381473 0.311776 0.628123
456 719 0.377079 0.308508 0.623009
462 720 0.377982 0.31628 0.627475
463 720 0.386533 0.313673 0.628328
464 722 0.376814 0.309468 0.617558
465 722 0.382343 0.307281 0.618961
466 722 0.37089 0.308443 0.627023
481 720 0.737701 0.223753 0.665854
449 719 0.377942 0.284849 0.633549
450 717 0.380967 0.290945 0.637385
451 716 0.379512 0.297002 0.634153
458 722 0.380582 0.280204 0.634738
459 722 0.372727 0.28413 0.635053
460 720 0.386394 0.29034 0.637822
461 720 0.37877 0.291716 0.642385
453 714 0.390092 0.301944 0.634177
387 722 0.606077 0.232421 0.680027
394 722 0.629702 0.230295 0.689838
467 719 0.7242 0.205145 0.685939
468 717 0.72971 0.204938 0.680404
469 716 0.732394 0.211309 0.679202
470 715 0.733115 0.213381 0.672958
471 714 0.731977 0.211551 0.667534
475 722 0.720759 0.209487 0.686104
476 722 0.720781 0.200889 0.685544
477 722 0.72654 0.204837 0.690879
478 720 0.727595 0.202918 0.675772
482 722 0.731586 0.232093 0.676863
483 722 0.728947 0.228382 0.67279
474 719 0.73424 0.227229 0.676823
472 716 0.735114 0.217801 0.67416
473 717 0.738102 0.224057 0.671239
479 720 0.73417 0.202028 0.68184
480 720 0.742071 0.228019 0.672439
484 722 0.738956 0.225582 0.682251
377 719 0.607629 0.23764 0.679453
378 717 0.614166 0.237983 0.675188
379 716 0.61988 0.237029 0.679149
380 715 0.625024 0.241131 0.678434
381 714 0.626489 0.245897 0.675401
382 716 0.627898 0.238875 0.681844
385 722 0.607657 0.239834 0.684543
386 722 0.603488 0.24026 0.677015
388 720 0.614462 0.242831 0.672654
389 720 0.614601 0.233916 0.671488
392 722 0.631619 0.239228 0.696337
393 722 0.630377 0.244025 0.692763
384 719 0.630753 0.237477 0.691152
383 717 0.634733 0.238983 0.684985
390 720 0.638599 0.235399 0.687243
391 720 0.637435 0.243217 0.682981
413 719 0.955727 0.496142 0.673257
414 717 0.949858 0.493974 0.677935
415 716 0.950606 0.496608 0.684396
416 715 0.949746 0.492636 0.68962
417 714 0.948623 0.487025 0.69077
418 716 0.950577 0.49618 0.693043
421 722 0.960844 0.496429 0.675369
422 722 0.956333 0.492695 0.669049
424 720 0.949622 0.488506 0.678183
425 720 0.944956 0.495983 0.6764
429 722 0.960821 0.49641 0.699891
419 717 0.950652 0.497504 0.700449
427 720 0.949699 0.492832 0.702999
501 722 0.106741 0.43236 0.752447
502 722 0.0973633 0.442785 0.753393
490 716 0.103192 0.438246 0.762677
491 717 0.107649 0.441267 0.757422
492 719 0.102801 0.437829 0.752857
498 720 0.107608 0.445424 0.753472
499 720 0.112783 0.440556 0.758964
500 722 0.10379 0.435342 0.748006
485 719 0.0882546 0.427601 0.771709
486 717 0.0938338 0.432783 0.773457
493 722 0.0889627 0.424317 0.7673
494 722 0.0874708 0.424028 0.775781
495 722 0.083497 0.430202 0.770953
496 720 0.0977522 0.430347 0.776412
487 716 0.0966352 0.435602 0.767674
497 720 0.0919596 0.437219 0.776146
488 715 0.103219 0.436038 0.76716
489 714 0.107996 0.434541 0.77016
62 2 0.72535 0.077312 0.865901
61 1 0.72999 0.079084 0.8708
64 3 0.728446 0.0795288 0.877576
69 5 0.733128 0.0849454 0.880895
63 3 0.736647 0.0805909 0.869423
65 4 0.740033 0.0808289 0.875683
66 4 0.733982 0.0827024 0.880736
67 5 0.742056 0.082144 0.875406
68 5 0.741039 0.0786436 0.875684
70 5 0.733935 0.0821428 0.883099
520 722 0.797565 0.465038 0.884684
519 722 0.796253 0.479025 0.885074
518 722 0.79776 0.475396 0.880396
517 720 0.785477 0.4754 0.889186
506 715 0.794082 0.472336 0.898964
508 716 0.793714 0.471076 0.894143
509 717 0.789459 0.471939 0.887998
510 719 0.796177 0.472283 0.884697
516 720 0.787881 0.469064 0.883294
55 4 0.564718 0.015131 0.920284
56 4 0.564417 0.0225986 0.917153
58 5 0.562955 0.0135386 0.919906
60 5 0.562453 0.0240275 0.917181
54 3 0.5662 0.0213768 0.910369
57 5 0.565143 0.0146321 0.922623
59 5 0.566062 0.0242619 0.917712
51 1 0.570031 0.0155626 0.910318
52 2 0.573647 0.0133794 0.904765
53 3 0.569881 0.0121537 0.916388
76 4 0.188828 0.41631 0.932853
79 5 0.189187 0.417238 0.930663
80 5 0.187204 0.414608 0.932249
513 722 0.81239 0.46474 0.905639
515 720 0.800621 0.463648 0.908487
242 2 0.0724279 0.497029 0.904931
507 714 0.790551 0.476043 0.901767
505 716 0.799475 0.468686 0.900147
514 720 0.799891 0.472535 0.909645
503 719 0.809943 0.469564 0.906485
504 717 0.802193 0.468593 0.906616
511 722 0.81212 0.473091 0.902804
512 722 0.81182 0.471469 0.911261
78 5 0.187739 0.420132 0.941571
71 1 0.19891 0.417413 0.937841
73 3 0.195167 0.422605 0.940582
74 3 0.195123 0.413137 0.933859
75 4 0.18832 0.421033 0.939418
77 5 0.187033 0.42309 0.939541
72 2 0.205746 0.416582 0.938968
522 717 0.0902305 0.664682 0.012868
523 716 0.0923429 0.66074 0.0182757
524 715 0.0921717 0.654147 0.0177238
525 714 0.0908729 0.650076 0.0137485
526 716 0.0938733 0.653248 0.0223358
527 717 0.0954048 0.647739 0.0272251
532 720 0.0896467 0.661549 0.00841226
533 720 0.0852897 0.666457 0.0145586
534 720 0.0953731 0.646725 0.0328696
535 720 0.0945992 0.643009 0.0247311
538 722 0.0976304 0.657061 0.0329243
528 719 0.10125 0.652172 0.0287519
536 722 0.106432 0.650725 0.0300769
537 722 0.105191 0.648829 0.0244037
521 719 0.0952817 0.670454 0.0113802
530 722 0.0948516 0.672233 0.00622217
531 722 0.0941986 0.67473 0.0146217
529 722 0.100707 0.669436 0.0118901
93 3 0.928475 0.676276 0.0280352
95 4 0.923692 0.681268 0.0263282
96 4 0.918185 0.68032 0.0321965
97 5 0.92322 0.681091 0.0239521
98 5 0.925128 0.683196 0.0262529
99 5 0.9166 0.678512 0.0321508
100 5 0.916697 0.682069 0.032987
569 720 0.53647 0.963583 0.0102095
570 720 0.529245 0.986474 0.0260241
572 722 0.528535 0.992615 0.0156374
574 722 0.523891 0.98263 0.0177479
564 719 0.529518 0.987351 0.017062
562 716 0.535317 0.979432 0.0176999
563 717 0.533628 0.98474 0.0227571
557 719 0.536208 0.968782 0.000268887
558 717 0.538283 0.968189 0.00777721
559 716 0.535317 0.973215 0.0116751
560 715 0.539045 0.976582 0.015982
561 714 0.544617 0.976921 0.0176858
568 720 0.543736 0.968489 0.00821209
571 720 0.53819 0.986156 0.0252913
573 722 0.534503 0.991444 0.0150632
91 1 0.927899 0.675208 0.0348919
92 2 0.932501 0.671515 0.0386143
94 3 0.922254 0.678212 0.0376477
659 720 0.0827783 0.786797 0.126444
657 722 0.092167 0.791219 0.132777
648 717 0.0816111 0.788618 0.131517
649 716 0.0782255 0.794626 0.130216
650 715 0.0716516 0.79485 0.130945
651 714 0.067275 0.791392 0.132665
652 716 0.07119 0.799628 0.12956
661 720 0.0612545 0.803148 0.129499
660 720 0.0653904 0.809633 0.124864
653 717 0.0661535 0.805059 0.128239
664 722 0.0759282 0.80983 0.125783
654 719 0.0713926 0.809254 0.131572
595 716 0.46444 0.9964 0.12513
596 715 0.459939 0.993207 0.121476
597 714 0.456206 0.994288 0.117123
598 716 0.460703 0.988745 0.123592
599 717 0.45829 0.981618 0.123662
600 719 0.465632 0.980263 0.124309
606 720 0.457694 0.977205 0.127275
607 720 0.454514 0.981086 0.119827
609 722 0.466299 0.979525 0.117629
610 722 0.466223 0.981827 0.131494
608 722 0.468583 0.976103 0.122145
90 5 0.805756 0.67026 0.166113
658 720 0.0782374 0.785099 0.134017
656 722 0.0894181 0.78524 0.1386
655 722 0.0876807 0.793561 0.140005
647 719 0.0879377 0.789793 0.135947
663 722 0.0684237 0.808552 0.137597
662 722 0.0707129 0.813573 0.134976
577 716 0.913026 0.594179 0.19627
578 715 0.909036 0.589572 0.19369
579 714 0.905734 0.588735 0.188952
581 717 0.907563 0.579488 0.19985
583 722 0.925116 0.598367 0.191511
586 720 0.91166 0.599931 0.187888
589 720 0.904222 0.577338 0.196182
591 722 0.916217 0.575905 0.195703
580 716 0.909727 0.58625 0.197359
575 719 0.921342 0.602329 0.192401
576 717 0.913817 0.60029 0.192911
584 722 0.922216 0.605801 0.188262
585 722 0.922864 0.604914 0.19698
587 720 0.910804 0.603731 0.195992
88 5 0.804621 0.659504 0.166964
87 5 0.801818 0.660251 0.169189
81 1 0.813949 0.663129 0.173742
82 2 0.819838 0.661898 0.177275
83 3 0.808448 0.658861 0.173835
85 4 0.804048 0.661076 0.168692
84 3 0.812961 0.668755 0.16976
86 4 0.806034 0.66891 0.168114
89 5 0.80527 0.670522 0.169727
547 722 0.458486 0.809026 0.196595
548 722 0.465257 0.803814 0.197702
812 412 0.674167 0.9932 0.193308
818 88 0.67251 0.993798 0.187994
819 88 0.678433 0.990574 0.190509
820 88 0.672933 0.988428 0.190033
874 92 0.697007 0.995328 0.190579
876 88 0.694538 0.984011 0.197755
938 88 0.720665 0.973376 0.195225
866 84 0.701117 0.996172 0.19408
931 411 0.726725 0.991423 0.188839
882 87 0.708249 0.995173 0.191309
883 83 0.714242 0.994426 0.196925
884 409 0.706702 0.988506 0.187593
885 410 0.701768 0.986775 0.184076
939 88 0.728254 0.984346 0.192677
886 411 0.709195 0.983597 0.192515
890 88 0.71926 0.993753 0.19886
891 88 0.718191 0.991735 0.198468
893 88 0.709119 0.979486 0.194918
895 88 0.70721 0.978901 0.196273
940 88 0.720274 0.974326 0.198192
932 412 0.723415 0.980421 0.193664
582 719 0.914841 0.578973 0.201559
590 722 0.918138 0.574525 0.201336
588 720 0.906748 0.576662 0.204773
592 722 0.914638 0.58308 0.207684
617 717 0.0134463 0.77227 0.231148
618 719 0.0202201 0.772333 0.227944
624 720 0.013114 0.76692 0.22911
625 720 0.00865924 0.774629 0.230276
626 722 0.0214948 0.772662 0.222562
627 722 0.0186737 0.777798 0.22429
628 722 0.0232574 0.76706 0.232113
539 719 0.46077 0.805582 0.20029
540 717 0.462439 0.808306 0.207419
541 716 0.457525 0.812774 0.209686
542 715 0.459388 0.818514 0.212401
543 714 0.464278 0.821505 0.213498
544 716 0.454749 0.820103 0.213363
545 717 0.450829 0.825681 0.216546
546 719 0.446393 0.824508 0.210621
549 722 0.457391 0.801294 0.200701
551 720 0.462398 0.804418 0.211331
552 720 0.445922 0.826555 0.219382
553 720 0.454322 0.829482 0.218154
554 722 0.443546 0.828216 0.207647
555 722 0.449526 0.829314 0.207058
556 722 0.442995 0.818488 0.213195
550 720 0.467315 0.810804 0.207344
825 410 0.690077 0.998848 0.22926
827 412 0.678952 0.996111 0.220795
833 88 0.682399 0.993878 0.217542
834 88 0.674909 0.995243 0.217733
835 88 0.676771 0.995113 0.225472
867 87 0.699153 0.99425 0.20089
868 83 0.69676 0.986625 0.201592
869 409 0.692737 0.995624 0.202553
870 410 0.690426 0.994291 0.208238
877 88 0.694834 0.984203 0.2062
875 88 0.697428 0.98283 0.205123
811 411 0.672772 0.998671 0.200647
894 88 0.70967 0.982825 0.209321
887 412 0.709678 0.982029 0.200742
892 88 0.716019 0.996332 0.200133
851 84 0.703455 0.99752 0.205791
858 92 0.706114 0.994609 0.207832
859 92 0.702378 0.994621 0.208977
611 719 0.0317491 0.786317 0.246468
612 717 0.024475 0.783672 0.247529
613 716 0.0225417 0.779314 0.242379
614 715 0.0166091 0.780092 0.239551
615 714 0.0120219 0.78369 0.239818
616 716 0.0170803 0.776234 0.23641
620 722 0.0325891 0.791032 0.249118
622 720 0.0209955 0.787896 0.24778
623 720 0.023907 0.780521 0.252019
619 722 0.0334321 0.787477 0.241315
621 722 0.0353344 0.782708 0.248491
101 1 0.187134 0.783235 0.263002
102 2 0.192775 0.785557 0.259615
104 3 0.183985 0.777199 0.261538
106 4 0.177787 0.777216 0.265045
109 5 0.176311 0.777857 0.263257
110 5 0.177049 0.774916 0.2653
103 3 0.184065 0.786715 0.268194
105 4 0.179412 0.782236 0.271195
107 5 0.177747 0.783548 0.272381
108 5 0.180705 0.78152 0.273093
629 719 0.936919 0.533114 0.403904
638 722 0.940839 0.530897 0.400792
639 722 0.93423 0.528963 0.406251
634 716 0.932573 0.550398 0.413923
635 717 0.928919 0.556462 0.416469
636 719 0.923371 0.553513 0.412385
642 720 0.924752 0.557871 0.420148
643 720 0.932249 0.560707 0.416099
644 722 0.91951 0.556133 0.409396
645 722 0.925024 0.557283 0.407031
646 722 0.921365 0.548293 0.417195
630 717 0.939908 0.537765 0.409424
631 716 0.935201 0.542467 0.411657
632 715 0.937002 0.548809 0.41224
633 714 0.941651 0.552193 0.411243
637 722 0.933462 0.535305 0.400166
640 720 0.94432 0.540353 0.407463
641 720 0.94122 0.535106 0.414075
111 1 0.085226 0.777804 0.431927
113 3 0.0852879 0.776647 0.425061
115 4 0.087885 0.782535 0.422013
116 4 0.0860035 0.78818 0.427513
117 5 0.0871645 0.782575 0.419694
118 5 0.0901595 0.781838 0.421657
119 5 0.083766 0.78904 0.427716
120 5 0.0872081 0.790268 0.427815
130 5 0.97462 0.650105 0.452745
129 5 0.973438 0.647092 0.451044
127 5 0.979321 0.650536 0.442604
128 5 0.982029 0.651353 0.44492
121 1 0.983669 0.640689 0.45037
122 2 0.987548 0.635104 0.45193
123 3 0.983565 0.643659 0.444072
124 3 0.979493 0.643869 0.454945
125 4 0.980145 0.649863 0.444787
126 4 0.975449 0.6484 0.451227
114 3 0.086415 0.784464 0.433574
112 2 0.0840858 0.77281 0.436664
759 714 0.0998682 0.504866 0.507739
762 719 0.0982059 0.522839 0.511117
763 722 0.099588 0.507152 0.529411
769 720 0.0980491 0.516474 0.500927
770 722 0.0938873 0.52627 0.511644
771 722 0.0918586 0.520634 0.510442
761 717 0.100426 0.519015 0.505067
755 719 0.104235 0.504359 0.528256
756 717 0.106403 0.503616 0.520787
757 716 0.10508 0.509455 0.517127
758 715 0.102135 0.508965 0.511221
760 716 0.10216 0.513872 0.510278
765 722 0.108239 0.506773 0.531105
767 720 0.111844 0.50301 0.52012
768 720 0.102211 0.524116 0.503148
772 722 0.104898 0.525002 0.513342
231 1 0.191045 0.869456 0.560458
232 2 0.197962 0.868552 0.560373
233 3 0.186878 0.867726 0.555154
234 3 0.187589 0.872182 0.565854
235 4 0.180501 0.870575 0.556542
236 4 0.180664 0.871067 0.564629
237 5 0.178829 0.86936 0.555268
238 5 0.180626 0.872541 0.555162
240 5 0.17939 0.872666 0.565939
239 5 0.180314 0.86913 0.566012
191 1 0.698418 0.794232 0.580426
194 3 0.692407 0.796065 0.583426
192 2 0.70061 0.787628 0.579915
193 3 0.702013 0.799674 0.577989
740 715 0.942463 0.797786 0.58021
741 714 0.939237 0.793834 0.577376
742 716 0.94733 0.79734 0.581249
743 717 0.953168 0.792611 0.580845
744 719 0.956794 0.798931 0.579092
750 720 0.957961 0.791277 0.583699
751 720 0.951544 0.788157 0.578246
752 722 0.960959 0.799645 0.575509
753 722 0.955979 0.797815 0.572482
195 4 0.698888 0.805523 0.580583
196 4 0.691315 0.802914 0.581811
197 5 0.699486 0.807401 0.579164
199 5 0.689764 0.802659 0.57999
200 5 0.689782 0.803849 0.583447
198 5 0.700367 0.805993 0.582421
746 722 0.931216 0.816147 0.57848
748 720 0.932118 0.804142 0.579536
737 719 0.936 0.814339 0.580431
738 717 0.935519 0.806915 0.582816
739 716 0.941813 0.803813 0.582867
745 722 0.939551 0.815602 0.576367
747 722 0.937292 0.817555 0.58467
749 720 0.933897 0.806384 0.58806
754 722 0.957359 0.801597 0.585947
701 719 0.638339 0.659708 0.632853
710 722 0.633706 0.656797 0.632719
711 722 0.639467 0.661119 0.627685
158 5 0.591254 0.528743 0.634986
151 1 0.594115 0.522045 0.644633
152 2 0.596818 0.516324 0.647573
153 3 0.590253 0.521931 0.638841
154 3 0.595002 0.528463 0.647185
155 4 0.589567 0.528687 0.6367
156 4 0.590487 0.532706 0.643675
157 5 0.587611 0.528839 0.635268
159 5 0.588712 0.532837 0.645293
160 5 0.591292 0.534991 0.643855
702 717 0.637579 0.666136 0.637226
709 722 0.64213 0.655934 0.634308
712 720 0.634303 0.665088 0.641491
716 722 0.663222 0.666293 0.647016
717 722 0.658375 0.664774 0.650411
718 722 0.659105 0.67308 0.639097
703 716 0.643796 0.668439 0.639525
704 715 0.644465 0.670111 0.645894
705 714 0.641316 0.67015 0.650808
706 716 0.649259 0.671471 0.645519
707 717 0.655012 0.674394 0.649386
708 719 0.658856 0.669317 0.645437
713 720 0.635665 0.67049 0.634433
714 720 0.659615 0.677721 0.648591
715 720 0.653439 0.675016 0.654522
181 1 0.059865 0.757797 0.64033
182 2 0.0555045 0.761605 0.636436
184 3 0.0578631 0.754217 0.645957
186 4 0.0638054 0.75213 0.64928
189 5 0.0639233 0.753812 0.650995
190 5 0.0632625 0.750229 0.650692
183 3 0.0666705 0.75718 0.638993
185 4 0.0691133 0.751948 0.64316
187 5 0.0715134 0.752228 0.643407
188 5 0.069137 0.750142 0.641571
161 1 0.754628 0.806341 0.658474
162 2 0.758592 0.800628 0.659045
163 3 0.75636 0.811849 0.654581
164 3 0.748526 0.807127 0.661735
165 4 0.75184 0.817076 0.656298
166 4 0.74542 0.812882 0.658917
167 5 0.751791 0.818673 0.654469
168 5 0.753225 0.818329 0.657814
169 5 0.743906 0.811815 0.657382
170 5 0.74378 0.813717 0.660502
142 2 0.676537 0.898889 0.657514
144 3 0.665291 0.902426 0.654077
145 4 0.662888 0.908847 0.663696
146 4 0.661004 0.907818 0.655883
147 5 0.662645 0.910937 0.66491
149 5 0.661648 0.909425 0.654214
150 5 0.658773 0.907329 0.655055
148 5 0.662055 0.907362 0.665395
141 1 0.670729 0.902647 0.658421
143 3 0.669767 0.907008 0.663763
423 722 0.954656 0.501068 0.671122
430 722 0.953031 0.507421 0.69594
420 719 0.956664 0.501568 0.69858
426 720 0.949606 0.501734 0.704178
428 722 0.961362 0.502299 0.701425
790 722 0.939631 0.619608 0.747813
773 719 0.964895 0.621487 0.750509
774 717 0.960226 0.624456 0.756025
775 716 0.953539 0.62466 0.753905
776 715 0.950018 0.630182 0.754859
778 716 0.945796 0.628391 0.752875
779 717 0.93858 0.630061 0.751551
780 719 0.940036 0.62647 0.745137
781 722 0.963887 0.622756 0.745208
783 722 0.964871 0.616021 0.750823
784 720 0.961904 0.629504 0.757339
785 720 0.959931 0.621348 0.760572
786 720 0.933459 0.627502 0.751206
788 722 0.938119 0.62756 0.740054
789 722 0.941512 0.632258 0.741986
782 722 0.970086 0.623085 0.751183
777 714 0.950747 0.635584 0.756944
787 720 0.93773 0.635174 0.753093
171 1 0.683816 0.674443 0.747241
172 2 0.679879 0.668737 0.748024
173 3 0.688777 0.676338 0.751745
174 3 0.683194 0.678835 0.741874
175 4 0.690715 0.682962 0.749994
176 4 0.688831 0.68318 0.742116
177 5 0.692935 0.683371 0.750893
178 5 0.689449 0.684199 0.751623
179 5 0.690225 0.682129 0.740462
180 5 0.68829 0.685202 0.740883
699 722 0.560711 0.81441 0.766623
680 722 0.00485659 0.975474 0.766623
681 722 0.998878 0.975001 0.765459
131 1 0.285655 0.656929 0.793378
132 2 0.286662 0.650026 0.79345
133 3 0.289787 0.661381 0.789973
134 3 0.280412 0.660084 0.796702
139 5 0.278505 0.666657 0.792774
136 4 0.280277 0.666819 0.794393
135 4 0.287981 0.66792 0.792138
137 5 0.288712 0.66951 0.790453
138 5 0.28972 0.668306 0.793755
140 5 0.279117 0.668169 0.796046
691 722 0.566041 0.791489 0.773518
683 719 0.569938 0.791326 0.777457
684 717 0.574227 0.797725 0.778753
692 722 0.573045 0.787088 0.775926
693 722 0.567405 0.78984 0.782077
694 720 0.578398 0.797898 0.775205
695 720 0.57615 0.798085 0.783909
689 717 0.566176 0.818573 0.774221
690 719 0.559769 0.814797 0.773298
696 720 0.562865 0.822539 0.776711
698 722 0.555645 0.815805 0.769738
700 722 0.558269 0.813773 0.780448
688 716 0.568828 0.811645 0.775474
685 716 0.570381 0.803566 0.778172
686 715 0.572742 0.808649 0.774652
687 714 0.577382 0.809976 0.771369
697 720 0.569702 0.821173 0.771051
678 720 0.00334396 0.965754 0.773646