ITEM: TIMESTEP
0
ITEM: NUMBER OF ATOMS
5540
ITEM: BOX BOUNDS pp pp pp
-1.0000000000000000e+02 1.0000000000000000e+02
-1.0000000000000000e+02 1.0000000000000000e+02
-1.0000000000000000e+02 1.0000000000000000e+02
ITEM: ATOMS id type xs ys zs
371 1 0.015557 0.130733 0.00427342
372 2 0.0216824 0.128469 0.0021362
374 3 0.0126034 0.128349 0.0101763
376 4 0.00592305 0.130589 0.00942233
379 5 0.00489732 0.128704 0.0083896
380 5 0.00485615 0.130384 0.0115187
373 3 0.0119545 0.135556 0.00066557
375 4 0.00712321 0.13758 0.00543745
377 5 0.00545456 0.1388 0.00429637
378 5 0.00820204 0.139446 0.00645176
533 3 0.847344 0.19711 0.0201123
537 5 0.848186 0.199184 0.0279191
531 1 0.846214 0.202305 0.0155301
532 2 0.844396 0.201043 0.00902506
534 3 0.847056 0.208853 0.017911
535 4 0.847295 0.200618 0.0262694
536 4 0.850537 0.207719 0.0239781
538 5 0.845011 0.200419 0.026917
539 5 0.852804 0.207907 0.023274
540 5 0.85046 0.209718 0.0252337
2860 717 0.438459 0.236857 0.032205
2871 720 0.437239 0.236952 0.0268723
2861 716 0.444983 0.233849 0.0324107
2568 722 0.528682 0.248251 0.0307342
2570 722 0.521298 0.252744 0.031205
2851 722 0.0967034 0.29718 0.0271949
2841 719 0.101728 0.299399 0.0274602
2850 722 0.104943 0.295491 0.0253459
2857 722 0.0940223 0.322661 0.0320993
2849 722 0.101838 0.303365 0.0236659
11 1 0.149725 0.331037 0.0201803
13 3 0.153863 0.329441 0.0256193
14 3 0.15068 0.327338 0.0142924
15 4 0.158912 0.32559 0.0224722
16 4 0.154587 0.321914 0.0166447
17 5 0.16013 0.32448 0.024167
18 5 0.160548 0.327249 0.0219795
19 5 0.152911 0.320297 0.0171419
20 5 0.155495 0.320815 0.0147632
2965 722 0.986486 0.322219 0.0310087
2964 722 0.988272 0.313864 0.0309007
2963 720 0.975312 0.315638 0.0311471
12 2 0.144954 0.335965 0.0205992
101 1 0.445187 0.461154 0.0241988
102 2 0.450252 0.456611 0.023242
103 3 0.444412 0.464575 0.0302779
104 3 0.440526 0.462592 0.0191522
108 5 0.436553 0.46545 0.0306593
110 5 0.435598 0.468932 0.020366
105 4 0.437848 0.46716 0.0296241
106 4 0.437566 0.468542 0.0216111
107 5 0.437551 0.468798 0.0312985
109 5 0.438905 0.470212 0.0205675
41 1 0.221548 0.123801 0.0549964
42 2 0.217447 0.126959 0.0595142
43 3 0.228362 0.122757 0.0563142
44 3 0.21913 0.121465 0.0488357
45 4 0.230813 0.121102 0.0498755
46 4 0.224389 0.117183 0.0467815
48 5 0.231508 0.12323 0.049064
49 5 0.223659 0.115082 0.0476322
50 5 0.224065 0.116695 0.0444944
47 5 0.23297 0.120179 0.050144
525 4 0.530727 0.177908 0.0613181
526 4 0.52881 0.170005 0.0610843
528 5 0.529069 0.179607 0.0615101
529 5 0.530471 0.168303 0.0609519
530 5 0.527272 0.169021 0.0595871
527 5 0.532099 0.179022 0.0597528
426 4 0.877633 0.184145 0.0661929
429 5 0.877516 0.181895 0.0654268
430 5 0.877776 0.185166 0.0640695
2859 719 0.432699 0.233305 0.0363381
2869 722 0.432031 0.227907 0.0355247
2876 722 0.456452 0.223876 0.0448738
2864 716 0.455675 0.233333 0.033896
2865 717 0.460309 0.233223 0.0394036
2872 720 0.465054 0.231305 0.03746
2874 722 0.462238 0.228555 0.0492979
2866 719 0.458101 0.229056 0.0457585
2875 722 0.454183 0.231367 0.0488321
343 3 0.597807 0.222477 0.0491965
347 5 0.599422 0.228313 0.0437847
341 1 0.602691 0.221201 0.0540734
342 2 0.602314 0.215721 0.0582003
344 3 0.607968 0.225805 0.0545364
345 4 0.601054 0.227326 0.0451766
346 4 0.605421 0.231261 0.050801
348 5 0.602072 0.225964 0.0435088
350 5 0.607219 0.232723 0.0503499
349 5 0.6044 0.232575 0.0525046
466 4 0.128712 0.240085 0.0636466
469 5 0.127955 0.237952 0.0629061
470 5 0.126582 0.241023 0.0640427
463 3 0.140302 0.239642 0.0618617
465 4 0.134944 0.24393 0.0601012
467 5 0.135122 0.244391 0.0577926
468 5 0.135738 0.246036 0.060879
2867 722 0.433038 0.23399 0.0417748
2868 722 0.427785 0.235385 0.0350723
2870 720 0.438813 0.242135 0.0336157
2862 715 0.45039 0.237374 0.034184
2863 714 0.450457 0.243172 0.036248
2873 720 0.461453 0.238407 0.0407247
2562 722 0.49842 0.247422 0.0535657
2563 722 0.499586 0.251967 0.0463442
2553 719 0.50227 0.248725 0.0498839
2554 717 0.508669 0.251809 0.0534082
2555 716 0.513598 0.25487 0.0491679
2556 715 0.520029 0.253027 0.0494101
2557 714 0.522375 0.248384 0.0526991
2558 716 0.523397 0.25671 0.0450028
2559 717 0.528002 0.253473 0.0405155
2560 719 0.524812 0.24981 0.0342674
2561 722 0.503181 0.244006 0.0472298
2564 720 0.511054 0.248057 0.0566038
2565 720 0.507243 0.255818 0.0568469
2566 720 0.531551 0.257289 0.0388414
2567 720 0.53108 0.250048 0.0434693
2569 722 0.522244 0.245086 0.0353756
2853 720 0.105106 0.29727 0.0378323
2856 722 0.0894835 0.328141 0.0368297
2843 716 0.0999008 0.305797 0.0385191
2846 716 0.0969261 0.314351 0.0444138
2847 717 0.0953206 0.321286 0.0433371
2848 719 0.0911911 0.322947 0.0367938
2854 720 0.092592 0.323 0.047762
2855 720 0.0999919 0.324128 0.0435152
2858 722 0.086597 0.320028 0.0359549
2842 717 0.104277 0.301629 0.0346304
2844 715 0.101989 0.311633 0.0410499
2845 714 0.107433 0.314316 0.0400294
2852 720 0.109203 0.303985 0.0342322
403 3 0.25086 0.308998 0.0646764
405 4 0.256098 0.311205 0.0604456
406 4 0.261406 0.313984 0.0659501
407 5 0.255132 0.312491 0.0587174
408 5 0.256525 0.309253 0.0591502
410 5 0.263681 0.314457 0.0655291
2710 720 0.571133 0.308434 0.0645331
2714 722 0.581893 0.316605 0.0632707
2956 719 0.98588 0.317667 0.0340163
2966 722 0.989292 0.318236 0.0383021
2962 720 0.978183 0.310494 0.0374208
2951 716 0.974473 0.330115 0.0434383
2952 715 0.972616 0.325649 0.0388091
2953 714 0.96967 0.32686 0.0335431
2954 716 0.975041 0.319709 0.0405885
2955 717 0.9784 0.315673 0.0356627
581 1 0.44689 0.343736 0.0547326
582 2 0.449713 0.337642 0.0532782
583 3 0.449445 0.349707 0.0520742
584 3 0.441303 0.344291 0.0589437
585 4 0.446285 0.354549 0.0561717
586 4 0.439149 0.350902 0.0575771
587 5 0.446558 0.356653 0.0551363
588 5 0.447907 0.354859 0.0578876
589 5 0.437552 0.35054 0.0558485
590 5 0.437614 0.35152 0.0592613
2961 720 0.969075 0.337722 0.0470783
2960 720 0.969542 0.337789 0.0384416
2959 722 0.981937 0.341994 0.0474284
2958 722 0.976371 0.347477 0.0438075
2949 719 0.978394 0.342411 0.0432432
2950 717 0.972579 0.337029 0.0429333
2957 722 0.981449 0.342731 0.0386931
622 2 0.163221 0.0401547 0.0962334
480 5 0.398901 0.0630369 0.0733786
471 1 0.408523 0.0656614 0.0816032
472 2 0.41456 0.064483 0.0846664
474 3 0.405295 0.0607139 0.0778144
476 4 0.400467 0.064538 0.07431
479 5 0.401625 0.0650386 0.0722898
475 4 0.398767 0.0702521 0.0798465
477 5 0.397636 0.0722781 0.0794079
478 5 0.397661 0.0697413 0.0818932
473 3 0.405286 0.0718675 0.0821055
162 2 0.825018 0.130069 0.0936293
161 1 0.823425 0.136677 0.0946378
163 3 0.82737 0.141857 0.0920187
164 3 0.81777 0.138576 0.0983356
165 4 0.824985 0.14744 0.0956723
166 4 0.817158 0.145413 0.0965771
167 5 0.82577 0.14939 0.0945969
168 5 0.826499 0.147494 0.0975102
169 5 0.815658 0.145302 0.0947304
170 5 0.81566 0.146415 0.0981027
521 1 0.530323 0.17352 0.071316
522 2 0.530685 0.173235 0.0781711
524 3 0.526322 0.169067 0.0676525
523 3 0.533911 0.178299 0.0676357
422 2 0.866394 0.182293 0.0794623
421 1 0.871824 0.183462 0.0754185
423 3 0.878391 0.183023 0.0778495
424 3 0.871073 0.185177 0.0686552
425 4 0.882033 0.186262 0.0727077
427 5 0.884317 0.185768 0.073023
428 5 0.882104 0.188503 0.0735074
464 3 0.131565 0.238488 0.069933
461 1 0.138272 0.23738 0.0681881
462 2 0.142641 0.234257 0.0724719
2698 717 0.594169 0.298007 0.075777
2708 720 0.592082 0.297643 0.0808255
2709 720 0.595171 0.292823 0.0743413
2706 722 0.604771 0.299684 0.0787959
401 1 0.254434 0.306781 0.0702945
402 2 0.251504 0.302851 0.0751091
404 3 0.261142 0.308791 0.0707636
409 5 0.260954 0.315902 0.0672874
2699 716 0.589052 0.300092 0.0711812
2700 715 0.582811 0.301349 0.0732522
2701 714 0.580835 0.301385 0.0790807
2702 716 0.579199 0.303138 0.0679521
2703 717 0.57499 0.308963 0.0683811
2704 719 0.57861 0.315962 0.0676457
2711 720 0.57219 0.308657 0.0730709
2712 722 0.574962 0.320008 0.0671827
2713 722 0.58158 0.317533 0.0719865
2705 722 0.600444 0.307135 0.0783243
2697 719 0.600878 0.302232 0.0758925
2707 722 0.603314 0.303148 0.0710478
454 3 0.162709 0.45096 0.083866
456 4 0.162742 0.457022 0.0801982
459 5 0.161516 0.456411 0.0782496
460 5 0.161102 0.458437 0.0811368
451 1 0.168716 0.448008 0.0817489
452 2 0.170051 0.441364 0.0828783
453 3 0.17328 0.452174 0.0784236
455 4 0.17072 0.458599 0.0799677
457 5 0.17176 0.460151 0.078524
458 5 0.171958 0.459151 0.081926
3940 717 0.465159 0.00391569 0.123584
3950 720 0.463177 0.00444068 0.118508
3951 720 0.462458 0.0076786 0.126496
3939 719 0.472951 0.00538525 0.123641
3947 722 0.475843 0.0025051 0.119969
3948 722 0.473989 0.0106023 0.122306
3949 722 0.475555 0.00477228 0.128446
628 5 0.16372 0.0412594 0.114105
627 5 0.16399 0.0379857 0.115455
625 4 0.164836 0.039212 0.113623
623 3 0.161407 0.037045 0.107813
621 1 0.165424 0.0397414 0.102728
630 5 0.174365 0.0400373 0.112062
629 5 0.17363 0.0369571 0.110454
626 4 0.172532 0.0390011 0.110992
624 3 0.171813 0.0419646 0.104597
271 1 0.108658 0.188793 0.114497
272 2 0.10948 0.182055 0.113435
273 3 0.1136 0.193436 0.112691
274 3 0.102831 0.19137 0.117441
275 4 0.111479 0.199207 0.116214
276 4 0.103403 0.198266 0.115916
278 5 0.112702 0.199006 0.118247
279 5 0.102187 0.198409 0.113873
280 5 0.101847 0.199429 0.117258
277 5 0.112666 0.201054 0.115346
281 1 0.0539675 0.383727 0.12841
283 3 0.0482888 0.381063 0.125262
284 3 0.0593958 0.385367 0.124274
285 4 0.050877 0.379351 0.118889
286 4 0.0563746 0.385257 0.117863
287 5 0.0490444 0.378932 0.117461
288 5 0.0515071 0.377078 0.119224
289 5 0.055747 0.387538 0.117589
290 5 0.0581058 0.385241 0.116255
420 5 0.135499 0.457191 0.107342
411 1 0.141129 0.462118 0.117885
412 2 0.144758 0.461801 0.123711
414 3 0.138574 0.456349 0.114812
415 4 0.134613 0.466399 0.110231
416 4 0.136872 0.458804 0.108386
419 5 0.138854 0.458338 0.107152
351 1 0.962979 0.456339 0.128
352 2 0.964349 0.449835 0.12626
353 3 0.959076 0.460501 0.123914
418 5 0.132661 0.466862 0.111515
413 3 0.139761 0.46824 0.114738
417 5 0.134357 0.468158 0.108676
4514 722 0.820081 0.499357 0.130496
355 4 0.960487 0.466889 0.126635
357 5 0.958882 0.4684 0.125789
358 5 0.962304 0.467602 0.12527
432 2 0.259454 0.0644907 0.15618
433 3 0.271288 0.0655098 0.158625
431 1 0.264722 0.0679744 0.158888
434 3 0.263797 0.074161 0.16207
435 4 0.274539 0.0696248 0.163389
436 4 0.270447 0.0765876 0.162407
437 5 0.276867 0.0693617 0.163095
439 5 0.270593 0.0778692 0.160405
438 5 0.274348 0.0683131 0.165368
440 5 0.270472 0.0784051 0.163913
571 1 0.215874 0.154042 0.152311
572 2 0.219761 0.15968 0.151758
573 3 0.216774 0.148517 0.148078
574 3 0.210823 0.153517 0.157156
575 4 0.210805 0.144872 0.149219
576 4 0.209492 0.146558 0.157069
577 5 0.211103 0.142708 0.148323
578 5 0.209394 0.145708 0.147492
579 5 0.210937 0.145771 0.158791
580 5 0.207459 0.146202 0.158216
191 1 0.766738 0.266508 0.166099
192 2 0.770443 0.264923 0.160534
194 3 0.760828 0.270265 0.16564
2835 720 0.0168021 0.331475 0.15061
2828 716 0.0304028 0.332466 0.165303
2823 719 0.0136876 0.341976 0.15249
2824 717 0.0190758 0.336162 0.152281
2825 716 0.0222513 0.334404 0.158483
2826 715 0.0289182 0.334301 0.159077
2827 714 0.0329921 0.336099 0.154828
2831 722 0.0157911 0.347016 0.153053
2832 722 0.0108941 0.342254 0.147779
2833 722 0.0097267 0.341549 0.156281
2834 720 0.0228827 0.337254 0.148501
2837 720 0.0396203 0.337008 0.165749
282 2 0.0541976 0.384708 0.135209
2742 722 0.0859297 0.425737 0.165652
2744 720 0.092905 0.414901 0.163875
83 3 0.615693 0.42931 0.162714
86 4 0.604045 0.429605 0.164121
89 5 0.603235 0.428235 0.162348
90 5 0.601938 0.43035 0.164891
85 4 0.610659 0.434265 0.163317
87 5 0.61101 0.435852 0.161604
88 5 0.611505 0.435587 0.165111
2769 719 0.664482 0.444786 0.16508
2777 722 0.664695 0.448034 0.160658
2779 722 0.659201 0.443364 0.165669
2778 722 0.666853 0.440138 0.163391
354 3 0.965437 0.459154 0.133941
356 4 0.961465 0.464997 0.134487
359 5 0.959661 0.464227 0.135837
360 5 0.962462 0.466393 0.136109
2785 722 0.660662 0.469402 0.166284
4499 716 0.832859 0.4989 0.145406
4497 719 0.843208 0.491908 0.142149
4498 717 0.839801 0.497496 0.146625
4505 722 0.844239 0.493441 0.136979
4506 722 0.848146 0.490543 0.144107
4507 722 0.840606 0.487075 0.141811
4509 720 0.839933 0.496089 0.151911
144 3 0.36255 0.130561 0.187172
146 4 0.356838 0.128797 0.190976
149 5 0.355216 0.128441 0.18927
150 5 0.357076 0.126539 0.191622
141 1 0.362039 0.13756 0.187037
142 2 0.365707 0.141356 0.18264
143 3 0.357604 0.14049 0.19162
145 4 0.356424 0.135116 0.196085
147 5 0.354548 0.135678 0.197404
148 5 0.358078 0.135505 0.197753
195 4 0.762744 0.265574 0.176224
198 5 0.761683 0.263447 0.176088
197 5 0.763298 0.265472 0.178517
193 3 0.76868 0.264452 0.172522
196 4 0.759802 0.272125 0.172399
199 5 0.760895 0.274239 0.172488
200 5 0.757593 0.272936 0.172593
2836 720 0.0371978 0.332953 0.172943
2839 722 0.0320517 0.347159 0.168555
2840 722 0.0282127 0.342872 0.175175
2830 719 0.0328034 0.343068 0.172138
2829 717 0.0352908 0.336241 0.169004
2838 722 0.0365588 0.345141 0.175529
252 2 0.117263 0.364023 0.181325
2685 717 0.24825 0.36184 0.183261
2686 719 0.245986 0.363031 0.175772
2692 720 0.249786 0.356631 0.183947
2693 720 0.244054 0.362419 0.186723
2694 722 0.242486 0.359156 0.174152
2696 722 0.249946 0.362951 0.171945
2684 716 0.253653 0.365954 0.185651
251 1 0.116527 0.370703 0.182741
253 3 0.111581 0.374607 0.179653
254 3 0.120695 0.373967 0.187349
255 4 0.113786 0.381165 0.181172
256 4 0.117113 0.379965 0.188505
257 5 0.112009 0.382646 0.180713
258 5 0.115103 0.381685 0.179259
259 5 0.115801 0.379388 0.190406
260 5 0.118562 0.381471 0.1896
2679 719 0.257034 0.3879 0.179234
2680 717 0.257046 0.383275 0.185676
2681 716 0.257016 0.376168 0.184615
2682 715 0.2524 0.372238 0.187455
2683 714 0.247526 0.374103 0.190721
2687 722 0.252223 0.388125 0.176597
2688 722 0.25804 0.393127 0.180551
2689 722 0.260821 0.386813 0.175397
2690 720 0.252926 0.384663 0.189003
2691 720 0.261552 0.384124 0.188659
2695 722 0.243143 0.367643 0.174884
2733 719 0.0894239 0.423834 0.169426
2734 717 0.0904829 0.416013 0.168658
2735 716 0.093941 0.412627 0.173973
2741 722 0.0939512 0.426837 0.168636
2743 722 0.0872432 0.425587 0.174161
2745 720 0.0856698 0.413426 0.168377
2736 715 0.0993207 0.408832 0.172765
2750 722 0.108317 0.415952 0.186947
2737 714 0.102195 0.408187 0.167363
2738 716 0.10144 0.406313 0.178558
2739 717 0.108445 0.406666 0.180172
2740 719 0.111096 0.413647 0.182789
2746 720 0.10942 0.402775 0.183896
2747 720 0.111251 0.404993 0.175785
2748 722 0.116207 0.413208 0.18468
2749 722 0.111578 0.417556 0.178965
81 1 0.613157 0.424229 0.16684
82 2 0.617099 0.419015 0.168962
84 3 0.606411 0.424747 0.168709
2391 719 0.261135 0.442714 0.175409
2399 722 0.258847 0.442897 0.180397
2400 722 0.257013 0.444032 0.172041
2401 722 0.261996 0.437391 0.174326
2402 720 0.265919 0.452695 0.175895
2392 717 0.2673 0.447604 0.174431
2393 716 0.273484 0.445764 0.177596
2394 715 0.276681 0.449972 0.181704
2395 714 0.274628 0.455438 0.183654
2396 716 0.282229 0.446962 0.183824
2397 717 0.283836 0.447102 0.19084
2398 719 0.279903 0.441998 0.195434
2403 720 0.268622 0.44802 0.169138
2404 720 0.289225 0.446238 0.191262
2405 720 0.283208 0.452247 0.192592
2407 722 0.274649 0.44327 0.196393
2408 722 0.279901 0.436726 0.19384
2771 716 0.664866 0.453063 0.174977
2774 716 0.663813 0.462801 0.179538
2781 720 0.668721 0.443826 0.175308
2770 717 0.668135 0.447698 0.171486
2772 715 0.66802 0.458829 0.176242
2773 714 0.673622 0.46044 0.174264
2780 720 0.67326 0.449161 0.170232
2500 717 0.0498984 0.496722 0.180686
2501 716 0.0557762 0.492588 0.180523
2502 715 0.0587319 0.490967 0.17474
2503 714 0.0572377 0.493079 0.169156
2504 716 0.0639925 0.487123 0.176121
2510 720 0.04845 0.498077 0.175583
2511 720 0.045958 0.493315 0.182359
2516 722 0.0753689 0.49436 0.181474
2505 717 0.0702981 0.488543 0.172952
2506 719 0.0745036 0.494496 0.176037
2512 720 0.0732235 0.483918 0.173073
2513 720 0.0693461 0.489332 0.167623
2514 722 0.079529 0.494657 0.173888
2515 722 0.0725874 0.499525 0.174955
2790 715 0.123937 0.49943 0.184757
2792 716 0.127812 0.494304 0.183018
2793 717 0.12738 0.488156 0.186738
2794 719 0.121239 0.483462 0.18504
2800 720 0.132077 0.485465 0.185927
2801 720 0.12751 0.489414 0.192061
2802 722 0.121779 0.478591 0.187465
2803 722 0.116376 0.485188 0.186913
2804 722 0.120452 0.48224 0.179728
2784 722 0.657506 0.476201 0.170385
2786 722 0.653447 0.4686 0.171206
2775 717 0.663061 0.469641 0.177423
2776 719 0.658465 0.470865 0.171097
2782 720 0.661127 0.472436 0.181714
2783 720 0.668067 0.471717 0.176675
617 5 0.92592 0.0979016 0.231875
2984 722 0.699598 0.198234 0.224314
2981 720 0.694009 0.213131 0.223866
2980 720 0.689086 0.206547 0.226413
2974 719 0.698686 0.203184 0.222078
2973 717 0.694291 0.208237 0.226295
2972 716 0.696312 0.209289 0.233124
2982 722 0.69631 0.202065 0.217282
2983 722 0.703612 0.205065 0.220552
2971 714 0.702505 0.218728 0.231647
2571 719 0.575491 0.24853 0.226419
2572 717 0.582378 0.247287 0.22269
2573 716 0.587176 0.252637 0.222784
2574 715 0.589814 0.255048 0.217124
2575 714 0.588214 0.25348 0.211392
2576 716 0.594076 0.259902 0.218741
2579 722 0.572049 0.251902 0.223787
2580 722 0.572633 0.243874 0.226898
2581 722 0.575771 0.250377 0.231591
2582 720 0.581469 0.245711 0.217526
2583 720 0.585068 0.243089 0.224941
2585 720 0.59354 0.264999 0.209824
2577 717 0.593801 0.266145 0.215167
31 1 0.665859 0.26617 0.218356
32 2 0.663128 0.260929 0.214856
33 3 0.671941 0.2655 0.221805
130 5 0.694187 0.257295 0.232045
2588 722 0.587665 0.272303 0.222689
2578 719 0.588068 0.271159 0.217317
2584 720 0.598694 0.268532 0.215741
2586 722 0.588763 0.276044 0.214961
2587 722 0.583009 0.26977 0.215701
34 3 0.662725 0.27244 0.218662
40 5 0.667018 0.278569 0.221818
35 4 0.671853 0.271251 0.225943
36 4 0.667969 0.276526 0.221114
37 5 0.67403 0.271546 0.226806
38 5 0.670865 0.270396 0.227934
39 5 0.668932 0.277336 0.219093
2337 719 0.177619 0.376408 0.224974
2338 717 0.183762 0.374035 0.229391
2345 722 0.174823 0.380653 0.227049
2346 722 0.17929 0.378223 0.220076
2347 722 0.173867 0.372596 0.223694
2348 720 0.187009 0.378288 0.230546
2349 720 0.186961 0.370604 0.226574
493 3 0.39796 0.399562 0.227353
491 1 0.404605 0.399892 0.229586
492 2 0.409165 0.394983 0.228072
495 4 0.395753 0.406199 0.228485
497 5 0.393398 0.40621 0.228321
498 5 0.396195 0.407219 0.226379
2406 722 0.282027 0.44187 0.20047
551 1 0.761153 0.441134 0.228845
552 2 0.75895 0.436278 0.224518
553 3 0.76706 0.444729 0.227649
2463 719 0.0460952 0.0168317 0.252588
2464 717 0.0521353 0.0187774 0.247833
2465 716 0.0554599 0.0250151 0.249132
2466 715 0.056214 0.0296241 0.244335
2467 714 0.0538713 0.0293922 0.238649
2471 722 0.0414851 0.0196775 0.251698
2472 722 0.0445718 0.0116199 0.251819
2473 722 0.0470204 0.0170898 0.258003
2474 720 0.0505511 0.0185824 0.242596
2475 720 0.0561448 0.0150709 0.248181
2480 722 0.0512998 0.0431134 0.255618
2468 716 0.0594584 0.0348152 0.246955
2469 717 0.056978 0.0414674 0.245758
2470 719 0.0508171 0.0437512 0.250169
2476 720 0.0611814 0.044897 0.246488
2477 720 0.0558684 0.0418992 0.240418
2478 722 0.0498338 0.0490918 0.249532
2479 722 0.046001 0.0414881 0.24882
2652 722 0.242015 0.0576894 0.262834
2654 720 0.251059 0.0488702 0.265949
2655 720 0.243569 0.0452002 0.263657
2319 719 0.39581 0.0883839 0.256945
2320 717 0.394569 0.0861015 0.264437
2327 722 0.396935 0.0937241 0.256345
2329 722 0.391835 0.0872499 0.253317
2331 720 0.394598 0.0806442 0.264828
2328 722 0.400204 0.0858852 0.254818
611 1 0.9215 0.0948258 0.243628
612 2 0.917855 0.0911059 0.248111
613 3 0.920485 0.0942831 0.236705
614 3 0.926428 0.0993488 0.245752
615 4 0.926282 0.0974727 0.234169
618 5 0.927762 0.0956277 0.233888
616 4 0.92749 0.103152 0.239868
619 5 0.925979 0.104965 0.240188
620 5 0.929482 0.104384 0.24016
632 2 0.499583 0.150714 0.261469
631 1 0.498437 0.156468 0.265045
633 3 0.500046 0.162793 0.262466
2970 715 0.701449 0.213327 0.234405
2979 720 0.710468 0.214254 0.246425
2978 720 0.712005 0.218324 0.238949
2977 722 0.718313 0.204092 0.242072
2976 722 0.722351 0.211626 0.243113
2975 722 0.720206 0.209131 0.235136
2969 716 0.705501 0.210211 0.238727
2968 717 0.711512 0.213328 0.241134
2967 719 0.718282 0.20929 0.240275
128 5 0.684693 0.252379 0.23421
121 1 0.690794 0.253683 0.243987
122 2 0.692008 0.252105 0.250565
123 3 0.684316 0.255056 0.241657
124 3 0.695993 0.254112 0.239293
125 4 0.68523 0.254659 0.234638
126 4 0.692815 0.257518 0.233954
127 5 0.683322 0.255601 0.233611
129 5 0.693362 0.259784 0.234439
201 1 0.230123 0.28249 0.261534
202 2 0.229757 0.276623 0.265091
203 3 0.232841 0.288324 0.264333
204 3 0.227782 0.28295 0.254934
205 4 0.230598 0.293262 0.259774
206 4 0.230706 0.289047 0.252816
208 5 0.228565 0.293969 0.260793
210 5 0.229638 0.289698 0.250814
207 5 0.231828 0.295234 0.26019
209 5 0.232736 0.288289 0.251828
2926 720 0.812334 0.295108 0.266491
2928 722 0.823936 0.298014 0.262946
2927 720 0.812093 0.303417 0.264259
2350 720 0.180147 0.36662 0.255803
2354 722 0.168562 0.369713 0.249462
2339 716 0.18227 0.370417 0.235418
2340 715 0.184683 0.372375 0.241346
2341 714 0.187856 0.377527 0.242477
2342 716 0.182549 0.368077 0.24596
2343 717 0.17972 0.370608 0.252077
2344 719 0.172239 0.373158 0.251685
2351 720 0.183055 0.37451 0.253968
2352 722 0.170262 0.37418 0.256679
2353 722 0.171527 0.377961 0.249122
499 5 0.399593 0.407011 0.237263
496 4 0.399996 0.408074 0.23517
494 3 0.406362 0.405482 0.233451
500 5 0.400313 0.410256 0.236012
2305 714 0.770495 0.421855 0.265414
2315 720 0.775165 0.429166 0.256095
2306 716 0.774854 0.432364 0.265868
554 3 0.757666 0.442672 0.234741
2317 722 0.763726 0.435245 0.256001
556 4 0.760628 0.448846 0.236561
559 5 0.759167 0.450409 0.235514
560 5 0.760002 0.449314 0.238787
557 5 0.769872 0.44936 0.233695
2316 722 0.769171 0.439692 0.251154
555 4 0.768255 0.447665 0.233982
558 5 0.769696 0.446061 0.234989
2307 717 0.77468 0.433878 0.258834
2308 719 0.76844 0.43804 0.25631
2314 720 0.779315 0.436542 0.257657
2318 722 0.767263 0.442673 0.259046
4532 722 0.261542 0.487197 0.266115
293 3 0.515647 0.495054 0.262966
295 4 0.520915 0.493656 0.258437
296 4 0.526351 0.499282 0.260671
297 5 0.519974 0.493454 0.256281
298 5 0.521271 0.491332 0.258816
300 5 0.528635 0.49928 0.260074
2643 719 0.242328 0.0554294 0.267821
2644 717 0.245844 0.0483281 0.267526
2645 716 0.245509 0.0442499 0.273435
2646 715 0.25104 0.0417572 0.276264
2647 714 0.256846 0.0429559 0.274612
2648 716 0.24921 0.0381976 0.281586
2649 717 0.252695 0.0391563 0.287812
2650 719 0.250657 0.0455431 0.292017
2651 722 0.245021 0.0591867 0.270783
2653 722 0.237121 0.0555464 0.269587
2656 720 0.251925 0.0346272 0.290788
2657 720 0.25806 0.039107 0.286745
2658 722 0.252914 0.0454034 0.296995
2659 722 0.252461 0.0503322 0.290031
2660 722 0.245284 0.0462545 0.292995
2321 716 0.388329 0.0879966 0.267456
2322 715 0.388135 0.0912864 0.273283
2323 714 0.392968 0.0934636 0.276411
2324 716 0.381748 0.0923272 0.274852
2330 720 0.398725 0.0877171 0.267614
2325 717 0.379683 0.0988849 0.27699
2332 720 0.375055 0.0982519 0.279843
2336 722 0.375405 0.102796 0.267062
2333 720 0.383278 0.100631 0.280725
2326 719 0.378632 0.10426 0.271277
2334 722 0.376273 0.108777 0.273258
2335 722 0.383239 0.106218 0.269023
640 5 0.493278 0.163399 0.274661
639 5 0.491508 0.163082 0.271599
636 4 0.493761 0.163087 0.272372
634 3 0.495599 0.156304 0.271462
637 5 0.499694 0.169079 0.267596
635 4 0.499724 0.166821 0.268286
638 5 0.501987 0.166776 0.269028
2930 722 0.824779 0.297107 0.271513
2920 719 0.822145 0.300065 0.267687
2929 722 0.824468 0.305038 0.267782
2913 719 0.820111 0.316757 0.289368
2914 717 0.813209 0.314597 0.286118
2915 716 0.813055 0.308336 0.282594
2916 715 0.810886 0.307948 0.276272
2917 714 0.809315 0.312673 0.272654
2918 716 0.811272 0.301586 0.274347
2919 717 0.814237 0.300022 0.267975
2921 722 0.823885 0.318481 0.285773
2922 722 0.819461 0.321045 0.292724
2923 722 0.822626 0.313038 0.292546
2924 720 0.811319 0.318587 0.282879
2925 720 0.809356 0.314022 0.289959
114 3 0.897882 0.312802 0.295273
111 1 0.901183 0.306625 0.294823
112 2 0.902443 0.303646 0.288761
171 1 0.451902 0.379589 0.283333
172 2 0.45157 0.373198 0.280832
173 3 0.456225 0.384394 0.280601
174 3 0.447943 0.381626 0.288758
175 4 0.456211 0.389355 0.28566
176 4 0.448585 0.388674 0.288412
177 5 0.457157 0.391316 0.284745
178 5 0.458091 0.38871 0.286971
179 5 0.446701 0.389263 0.287079
180 5 0.447787 0.389568 0.290447
2301 719 0.756269 0.427656 0.278727
2302 717 0.763635 0.425055 0.277364
2309 722 0.752972 0.427565 0.274339
2310 722 0.753684 0.424463 0.28236
2311 722 0.755777 0.432686 0.280895
2312 720 0.763485 0.420131 0.274976
2313 720 0.76629 0.424204 0.282072
2303 716 0.76802 0.429405 0.273688
2304 715 0.7712 0.427302 0.268187
4521 717 0.259697 0.493399 0.275618
4522 719 0.257792 0.488117 0.270042
4528 720 0.263612 0.491368 0.27886
4529 720 0.255514 0.49428 0.279031
4530 722 0.256926 0.483186 0.272239
4531 722 0.253075 0.489087 0.267407
4520 716 0.262017 0.499805 0.273288
291 1 0.519199 0.49714 0.268648
292 2 0.516191 0.497605 0.274809
294 3 0.525968 0.498744 0.267727
501 1 0.590951 0.0210203 0.322778
502 2 0.592857 0.0144727 0.321937
503 3 0.594421 0.026291 0.319707
504 3 0.585433 0.0227635 0.326749
505 4 0.591945 0.0318884 0.323278
506 4 0.584319 0.0294724 0.32476
508 5 0.593563 0.0321062 0.325012
509 5 0.582718 0.0291978 0.323018
510 5 0.582862 0.0304558 0.326336
2421 720 0.471112 0.0582816 0.30207
2409 719 0.48096 0.0552776 0.306255
2410 717 0.474961 0.0603824 0.305343
2417 722 0.484451 0.0565597 0.310293
2418 722 0.479127 0.0503019 0.307655
2419 722 0.48406 0.0542792 0.301824
2420 720 0.472407 0.0611652 0.310122
507 5 0.592549 0.0338298 0.322077
2426 722 0.491145 0.0797741 0.301513
2411 716 0.476479 0.0667306 0.302336
2412 715 0.474859 0.0724875 0.305344
2413 714 0.472476 0.0731175 0.310984
2414 716 0.476815 0.0774901 0.30141
2415 717 0.480462 0.0829937 0.304281
2416 719 0.488148 0.081747 0.305692
2422 720 0.479844 0.0872551 0.300901
2423 720 0.477834 0.0845491 0.30882
2424 722 0.490663 0.0864069 0.307054
2425 722 0.489251 0.0785053 0.309983
391 1 0.383313 0.182251 0.312241
392 2 0.37805 0.179756 0.308596
393 3 0.386423 0.18831 0.310549
394 3 0.385843 0.17886 0.317841
395 4 0.392394 0.187947 0.314346
396 4 0.389766 0.183906 0.3209
397 5 0.39336 0.190102 0.314372
398 5 0.393901 0.186974 0.31278
399 5 0.388213 0.184858 0.322435
400 5 0.391151 0.182865 0.322503
74 3 0.560643 0.260056 0.333228
76 4 0.56175 0.266857 0.331572
79 5 0.561811 0.266769 0.329193
80 5 0.559686 0.267987 0.331765
115 4 0.899367 0.307373 0.30557
116 4 0.899272 0.314667 0.301966
118 5 0.897405 0.306041 0.305782
120 5 0.897825 0.316445 0.302531
113 3 0.903129 0.303638 0.300868
117 5 0.90025 0.306926 0.307714
119 5 0.901245 0.315973 0.301701
220 5 0.799973 0.396233 0.321836
214 3 0.799988 0.389137 0.325785
211 1 0.806186 0.385949 0.326606
212 2 0.806641 0.379489 0.328902
213 3 0.811898 0.389681 0.324962
215 4 0.809253 0.396246 0.324627
216 4 0.80178 0.394714 0.321798
217 5 0.810857 0.397613 0.323562
218 5 0.809631 0.39703 0.326844
219 5 0.801407 0.393874 0.319601
366 4 0.202506 0.406035 0.330708
369 5 0.204255 0.407637 0.330917
370 5 0.202693 0.405703 0.328383
2671 722 0.330151 0.444848 0.331251
2669 722 0.332302 0.453314 0.33214
2661 719 0.334317 0.448219 0.332487
2670 722 0.337598 0.447821 0.32811
4543 722 0.29255 0.499261 0.312719
565 4 0.263895 0.00447429 0.34082
567 5 0.262606 0.00644319 0.340636
568 5 0.263064 0.00378072 0.342941
561 1 0.274042 0.00044043 0.34119
563 3 0.270524 0.0063848 0.342436
381 1 0.0833051 0.179183 0.356564
382 2 0.0858445 0.172962 0.355124
383 3 0.0763956 0.180325 0.35702
384 3 0.0874972 0.184698 0.357687
385 4 0.0761125 0.187402 0.356785
386 4 0.0830105 0.18931 0.360654
387 5 0.0739472 0.188056 0.357461
388 5 0.075819 0.187794 0.354454
389 5 0.0833259 0.188864 0.362972
390 5 0.0840425 0.191433 0.360628
2727 720 0.887869 0.203735 0.366576
71 1 0.567211 0.257733 0.334074
72 2 0.568659 0.25102 0.334286
73 3 0.572221 0.262603 0.334731
77 5 0.569802 0.27029 0.33573
75 4 0.568386 0.268422 0.336011
78 5 0.568338 0.268451 0.338392
362 2 0.205736 0.397702 0.345745
363 3 0.197781 0.405777 0.341448
365 4 0.195508 0.406734 0.33481
367 5 0.194109 0.408635 0.33479
368 5 0.193783 0.4051 0.334645
361 1 0.203023 0.40121 0.340499
364 3 0.205348 0.4004 0.333928
2666 716 0.331347 0.447517 0.35539
2667 717 0.32784 0.452541 0.35917
2668 719 0.321648 0.455929 0.355589
2674 720 0.326246 0.450195 0.363852
2675 720 0.331498 0.456278 0.360775
2676 722 0.318817 0.45902 0.359099
2677 722 0.322903 0.459496 0.35161
2678 722 0.317878 0.452543 0.353433
2663 716 0.334407 0.445821 0.345169
2662 717 0.338284 0.446694 0.339181
2664 715 0.335648 0.449418 0.350676
2665 714 0.339662 0.454057 0.35118
2672 720 0.342125 0.450507 0.340007
2673 720 0.341083 0.442013 0.33875
261 1 0.864307 0.00505829 0.380838
264 3 0.859149 0.00364748 0.385384
265 4 0.864263 0.0140864 0.386992
266 4 0.857142 0.0101635 0.387314
267 5 0.864524 0.0164328 0.386979
269 5 0.855384 0.0106028 0.385768
270 5 0.855788 0.00995704 0.389237
268 5 0.866041 0.0136053 0.3885
263 3 0.866855 0.0115976 0.380885
262 2 0.866762 0.000267264 0.376568
304 3 0.279316 0.06252 0.394605
306 4 0.272491 0.0644095 0.394826
309 5 0.271592 0.0631816 0.392993
310 5 0.271456 0.0631617 0.396542
548 5 0.010644 0.0806724 0.399388
550 5 0.000417334 0.0768957 0.399625
547 5 0.0115138 0.0772454 0.399731
301 1 0.282055 0.0676146 0.390629
302 2 0.288305 0.0670405 0.387838
303 3 0.278095 0.0733263 0.38965
305 4 0.273169 0.0725159 0.394678
307 5 0.271411 0.0740202 0.39421
308 5 0.274122 0.0737387 0.396486
2894 722 0.941644 0.0839485 0.397401
137 5 0.199006 0.195284 0.38174
135 4 0.200101 0.197356 0.382024
138 5 0.200001 0.197414 0.384402
139 5 0.206774 0.199774 0.375536
140 5 0.208889 0.198983 0.378277
136 4 0.206695 0.199776 0.377917
2717 716 0.885116 0.197507 0.373917
2718 715 0.884579 0.190842 0.373621
2719 714 0.888604 0.186964 0.371043
2720 716 0.879217 0.189049 0.377139
2721 717 0.879756 0.183612 0.381828
2722 719 0.883136 0.185308 0.38878