ITEM: TIMESTEP
51
ITEM: NUMBER OF ATOMS
14051
ITEM: BOX BOUNDS pp pp pp
-1.0000000000000000e+02 1.0000000000000000e+02
-1.0000000000000000e+02 1.0000000000000000e+02
-1.0000000000000000e+02 1.0000000000000000e+02
ITEM: ATOMS id type xs ys zs
6967 80 0.347384 0.0247551 0.0114986
6968 714 0.34769 0.0176816 0.0119548
6969 713 0.352738 0.0142981 0.00910675
6970 712 0.357142 0.0166984 0.00551153
6971 714 0.352202 0.00784836 0.0109008
6972 80 0.356601 0.00299928 0.00817359
6973 85 0.347888 0.0265161 0.0063548
6974 85 0.351317 0.0270114 0.014515
6975 85 0.342577 0.0264318 0.0134208
6976 85 0.355609 0.00233256 0.0028558
6978 85 0.36182 0.00444055 0.00880817
13973 85 0.428248 0.000720585 0.0345697
13967 415 0.443092 0.00184473 0.0353918
13970 431 0.440026 0.00239672 0.0271028
9240 85 0.00968355 0.0334021 0.0101242
9229 80 0.0325372 0.0448693 0.00767745
9230 431 0.028887 0.0408484 0.0130672
9231 408 0.0219693 0.0406422 0.0115114
9232 406 0.017765 0.0376899 0.0158298
9233 407 0.0193365 0.0351321 0.0211922
9234 80 0.0105479 0.0376804 0.0133941
9235 85 0.0306374 0.0499713 0.00742583
9237 85 0.0319081 0.0425831 0.00277368
9238 410 0.0308604 0.0357625 0.0133093
9239 410 0.0296411 0.0431421 0.0179625
9241 85 0.00713496 0.0373435 0.0176316
9242 85 0.00942851 0.0422521 0.0106422
9236 85 0.0378742 0.0451542 0.00872921
9019 80 0.432781 0.0630686 0.020238
9025 85 0.428974 0.060731 0.0233584
9026 85 0.431027 0.062878 0.0150846
9027 85 0.437323 0.0600809 0.020582
9029 410 0.429499 0.0732318 0.0219877
9020 431 0.434071 0.0702842 0.0224331
9021 408 0.436337 0.0702876 0.0291545
9022 406 0.437301 0.0761674 0.0322433
9023 407 0.436272 0.0817154 0.0298071
9028 410 0.437843 0.0726017 0.0192354
669 718 0.273922 0.112043 0.000427411
6955 80 0.029848 0.164779 0.0188295
6956 714 0.0297853 0.158982 0.0147373
6962 85 0.0326815 0.163848 0.0233895
6963 85 0.0247325 0.166008 0.0202198
9273 408 0.00267865 0.164765 0.0250925
9279 85 0.0113818 0.164108 0.0352063
9284 85 0.000755493 0.157297 0.0151006
6957 713 0.0354612 0.156735 0.0119423
6958 712 0.0408843 0.159673 0.0119086
6959 714 0.0342412 0.150682 0.0093018
6960 80 0.0393583 0.1472 0.00582863
6964 85 0.0404328 0.149662 0.00108631
6965 85 0.0377125 0.142109 0.00482046
6966 85 0.0439634 0.146956 0.00874022
9271 80 0.0112291 0.168807 0.032456
9272 431 0.0042654 0.17005 0.0295418
9277 85 0.0149775 0.168561 0.0285052
9280 410 0.000542075 0.170281 0.033529
9281 410 0.00414972 0.174821 0.026895
6961 85 0.0320261 0.16908 0.0162661
654 713 0.241733 0.18422 0.000627925
655 712 0.240974 0.189463 0.00371452
656 714 0.239275 0.178267 0.00229028
7057 85 0.274929 0.229588 0.0343398
4182 720 0.455519 0.225859 0.0258155
4181 720 0.449948 0.220305 0.0298655
4180 720 0.45869 0.219338 0.0308869
4172 712 0.445389 0.232916 0.0320673
4174 717 0.454672 0.222982 0.0303739
7009 85 0.029694 0.266919 0.024056
7003 80 0.0300992 0.271193 0.0274275
7004 714 0.0291461 0.277366 0.0240572
7005 713 0.0236667 0.278389 0.0203176
7006 712 0.0195066 0.27411 0.0187524
7007 714 0.0234273 0.284892 0.0186665
7008 80 0.0181871 0.287349 0.0145611
7010 85 0.0264242 0.270633 0.0314095
7012 85 0.0187038 0.285423 0.00948802
7013 85 0.0184231 0.292786 0.0144007
7014 85 0.0132893 0.285908 0.0164799
7011 85 0.035059 0.271155 0.029668
4165 720 0.109111 0.29976 0.024228
4156 713 0.101503 0.310075 0.0345145
4157 712 0.101339 0.315503 0.0315999
4158 714 0.104119 0.304448 0.0319823
4159 717 0.107223 0.30468 0.025607
4166 720 0.103656 0.306303 0.021814
4167 720 0.111402 0.30819 0.0256542
8982 80 0.129365 0.324614 0.032485
8988 85 0.127614 0.319842 0.0305074
8989 85 0.125626 0.328423 0.0313738
8990 85 0.134003 0.325968 0.0299567
8994 406 0.468472 0.331565 0.00188588
8996 80 0.473933 0.326736 0.00409234
9002 85 0.471993 0.32164 0.00420034
9003 85 0.478128 0.326921 0.000616308
9004 85 0.475762 0.328023 0.00906536
8965 408 0.0623454 0.364577 0.0319394
8966 406 0.0615762 0.36224 0.0256967
8967 407 0.0634268 0.356742 0.0236665
8975 85 0.0555363 0.364592 0.0170781
10061 85 0.0612495 0.341684 0.000451657
10062 85 0.0615953 0.35037 0.00175874
8972 410 0.0706839 0.359434 0.0351339
9220 80 0.358752 0.365456 0.0352908
9226 85 0.362529 0.365841 0.0313765
9227 85 0.356031 0.36078 0.0346184
8993 408 0.464546 0.33355 0.00695311
8991 80 0.455748 0.339847 0.0121637
8992 431 0.459125 0.337911 0.00557673
8997 85 0.45925 0.342386 0.0154785
8998 85 0.451561 0.343222 0.0112979
8999 85 0.453855 0.335445 0.0147539
9000 410 0.455564 0.335412 0.00227583
9001 410 0.460915 0.342373 0.00299272
8968 80 0.0581424 0.367227 0.0210752
8974 85 0.061836 0.37056 0.0188414
8976 85 0.0545038 0.370225 0.0238151
9228 85 0.35523 0.369583 0.0347439
11334 80 0.494975 0.377464 0.00825194
11340 85 0.494699 0.373053 0.00505569
11341 85 0.491776 0.376662 0.0125928
11342 85 0.493072 0.381759 0.00548361
118 718 0.491316 0.452653 0.0353085
119 718 0.498186 0.461528 0.0317651
142 715 0.00901815 0.479855 0.0328167
143 714 0.00303457 0.483469 0.0336363
147 718 0.0186655 0.484507 0.0351338
149 718 0.00841605 0.474636 0.0342669
150 718 0.0106142 0.480106 0.0276126
13968 416 0.442476 0.00828691 0.0385332
6991 80 0.263376 0.0732707 0.0676399
6997 85 0.264533 0.0724814 0.0623618
6998 85 0.259463 0.0770395 0.0680237
6999 85 0.261465 0.068605 0.0696894
6992 714 0.269078 0.0752605 0.0713684
6993 713 0.27287 0.0803984 0.0693033
6994 712 0.272265 0.0834358 0.0639679
7000 85 0.285837 0.0850938 0.069169
9024 80 0.43998 0.0753792 0.0393292
9030 85 0.445403 0.0748084 0.0392249
9031 85 0.438756 0.0797798 0.0423049
9032 85 0.437798 0.0710054 0.0417443
9278 85 0.0126864 0.172803 0.0358561
9202 431 0.275998 0.199576 0.0460065
9205 407 0.268158 0.194119 0.0559887
9210 410 0.273335 0.19587 0.0430088
9211 410 0.279464 0.196889 0.0492556
44 713 0.399476 0.197414 0.0513844
45 712 0.399363 0.191302 0.0518309
9206 80 0.26304 0.204757 0.058307
9212 85 0.258396 0.205275 0.0554973
9213 85 0.261886 0.202763 0.0632461
9214 85 0.265269 0.209697 0.0589206
7051 80 0.272514 0.22975 0.0392337
7052 714 0.276984 0.228074 0.0444853
7053 713 0.282836 0.231296 0.0451228
7055 714 0.285559 0.229576 0.0510157
7056 80 0.291901 0.232137 0.0529016
7059 85 0.268383 0.226206 0.0392307
7060 85 0.295804 0.230021 0.0497393
7061 85 0.292922 0.23079 0.0580767
9201 80 0.279824 0.204429 0.0414952
9203 408 0.271365 0.203261 0.049902
9204 406 0.26782 0.200107 0.0546284
9207 85 0.282484 0.208155 0.0444562
9208 85 0.283503 0.20181 0.0384514
9209 85 0.276431 0.207072 0.0381511
42 715 0.396801 0.20803 0.0481074
43 714 0.39608 0.201114 0.0470139
49 718 0.397866 0.210701 0.0434777
50 718 0.392237 0.210017 0.0503239
41 715 0.402634 0.208265 0.0530022
46 714 0.402968 0.201593 0.0552078
47 718 0.401819 0.211744 0.0571149
48 718 0.407281 0.209554 0.0504568
4171 713 0.449845 0.232107 0.0362491
4173 714 0.454487 0.227286 0.036012
7054 712 0.285253 0.235248 0.0410486
7062 85 0.292078 0.237571 0.0524806
7058 85 0.270478 0.234743 0.0400086
4179 718 0.446618 0.244589 0.0375949
4168 717 0.439836 0.240341 0.0449568
4169 715 0.446888 0.241905 0.0423389
4170 714 0.450775 0.236018 0.0415944
4175 720 0.436754 0.244839 0.0450059
4176 720 0.440048 0.238383 0.0500358
4177 720 0.437326 0.236637 0.041837
4178 718 0.449431 0.245221 0.0458382
3411 717 0.313934 0.282185 0.0657365
3412 716 0.320159 0.286128 0.0678656
3415 713 0.331271 0.283317 0.0675327
3417 714 0.325708 0.284223 0.0639683
3418 720 0.312432 0.283562 0.0606717
3419 720 0.314882 0.276814 0.0657929
3420 720 0.309749 0.283218 0.0690683
3421 719 0.319368 0.291492 0.0672841
3416 712 0.336864 0.282106 0.0653338
4153 717 0.0896688 0.316525 0.0424413
4154 715 0.0967785 0.314485 0.0445194
4155 714 0.0991561 0.309007 0.0406867
4160 720 0.0881213 0.32106 0.0450445
4161 720 0.0860944 0.312591 0.0436383
4162 720 0.0893587 0.317495 0.0370827
4163 718 0.0967917 0.313052 0.0497777
4164 718 0.100194 0.318718 0.0440715
8980 406 0.130435 0.324095 0.040009
8981 407 0.126056 0.325738 0.0439963
8977 80 0.145336 0.31841 0.0490653
8978 431 0.138067 0.320726 0.0484701
8979 408 0.136481 0.321661 0.0416216
8983 85 0.148741 0.322118 0.0469784
8984 85 0.146724 0.317651 0.0542769
8985 85 0.14611 0.313716 0.0464121
8986 410 0.134703 0.317005 0.0506284
8987 410 0.137346 0.325388 0.0512166
8963 80 0.0656284 0.364149 0.0434779
8964 431 0.0655785 0.360496 0.0367539
8969 85 0.0605546 0.365206 0.0451644
8973 410 0.0629668 0.355726 0.0372149
8970 85 0.0680455 0.361144 0.0473239
97 718 0.325997 0.350983 0.0675572
96 714 0.334018 0.345343 0.0710764
9218 406 0.362061 0.365574 0.0421529
9219 407 0.364061 0.360414 0.0448221
8971 85 0.0683051 0.368879 0.0431064
9215 80 0.36577 0.380051 0.0527679
9216 431 0.365559 0.372593 0.0510822
9217 408 0.362582 0.37176 0.0446978
9221 85 0.360754 0.382181 0.0528433
9225 410 0.362683 0.369875 0.0548408
9222 85 0.367984 0.380889 0.0576739
9223 85 0.368719 0.382789 0.049098
9224 410 0.370612 0.370522 0.0510541
61 715 0.426183 0.414556 0.0572532
62 715 0.423834 0.412579 0.0642264
63 714 0.428961 0.408239 0.0663353
66 714 0.432902 0.412465 0.0573096
67 718 0.425711 0.419897 0.0562874
68 718 0.42347 0.411795 0.0534122
69 718 0.418993 0.410077 0.0641504
70 718 0.423583 0.416883 0.0675591
64 713 0.43433 0.408438 0.0624077
65 712 0.439619 0.405479 0.0633345
9063 408 0.0630699 0.452547 0.0531449
9064 406 0.0571072 0.45018 0.0551115
9065 407 0.0557474 0.448107 0.0607346
9066 80 0.0519345 0.450165 0.0495206
9072 85 0.0522769 0.44553 0.046667
9073 85 0.0469152 0.450549 0.051612
9074 85 0.052718 0.454372 0.0461413
9061 80 0.0745241 0.455882 0.0545072
9062 431 0.0683877 0.452749 0.0578331
9067 85 0.0734521 0.460952 0.0528171
9068 85 0.0787083 0.456161 0.0579832
9069 85 0.0761085 0.45296 0.0501924
9070 410 0.0695289 0.447688 0.0595365
9071 410 0.0669133 0.455665 0.0622048
111 715 0.493394 0.455469 0.0394908
112 715 0.496941 0.46176 0.0370658
114 713 0.487196 0.464639 0.0422959
116 714 0.488138 0.458135 0.0433329
117 718 0.496623 0.452202 0.0424204
141 715 0.0137986 0.483608 0.0374106
144 713 0.00390456 0.489277 0.036778
146 714 0.0102898 0.489586 0.0386147
148 718 0.0144893 0.480944 0.0421186
113 714 0.492158 0.46675 0.0383899
115 712 0.482634 0.468062 0.0445393
7002 85 0.280132 0.0914415 0.0715331
6995 714 0.277396 0.08172 0.0740857
6996 80 0.282347 0.086692 0.0730399
7001 85 0.285109 0.087477 0.0776643
3413 715 0.322656 0.284642 0.0749222
3414 714 0.329593 0.283977 0.0739338
3422 718 0.32148 0.288629 0.0784461
3423 718 0.320676 0.279937 0.0768167
9243 80 0.229842 0.317617 0.079117
9244 431 0.224001 0.318466 0.0839851
9245 408 0.217905 0.317755 0.0804305
9246 406 0.21212 0.318469 0.0837574
9247 407 0.211561 0.319711 0.0897493
9248 80 0.206008 0.317461 0.0793231
9249 85 0.229644 0.321358 0.0751593
9251 85 0.229741 0.31269 0.0767961
9252 410 0.22427 0.314711 0.087941
9253 410 0.224214 0.323377 0.0863568
9254 85 0.204648 0.312182 0.0791779
9255 85 0.201782 0.320288 0.081289
9256 85 0.206993 0.319161 0.0742365
9250 85 0.234618 0.318179 0.081674
91 715 0.327376 0.347611 0.0716074
92 715 0.327393 0.350972 0.0784462
98 718 0.32404 0.343296 0.0715563
99 718 0.322921 0.349819 0.0813416
100 718 0.327917 0.356381 0.0780252
93 714 0.333191 0.348227 0.0813597
94 713 0.337213 0.345343 0.0769146
95 712 0.342787 0.343026 0.0780103
7015 80 0.311137 0.376076 0.086523
7016 714 0.31755 0.375469 0.0895101
7017 713 0.323098 0.375485 0.0857318
7018 712 0.323298 0.37469 0.0796163
7019 714 0.32838 0.376657 0.0896997
7021 85 0.310516 0.372817 0.0821872
7022 85 0.31029 0.381226 0.0849656
7023 85 0.307337 0.374773 0.0901971
7020 80 0.334894 0.377153 0.0869235
7024 85 0.336386 0.372416 0.0846755
7025 85 0.338442 0.378402 0.0908604
7026 85 0.335135 0.381043 0.0831085
9263 85 0.0797964 0.432555 0.104965
7039 80 0.161394 0.411202 0.100284
7045 85 0.161007 0.408319 0.0956647
7046 85 0.160542 0.416459 0.0991384
7047 85 0.157479 0.409545 0.103683
7040 714 0.167692 0.410363 0.103446
7041 713 0.173374 0.411499 0.100059
7042 712 0.173831 0.412448 0.0939805
7043 714 0.178465 0.411547 0.104437
7044 80 0.185114 0.412561 0.102177
7048 85 0.186811 0.408245 0.0993138
7049 85 0.188399 0.413215 0.10647
7050 85 0.185511 0.417 0.0990328
9106 406 0.326554 0.432511 0.102395
9107 407 0.320828 0.432712 0.104605
9108 80 0.33021 0.425896 0.101432
9114 85 0.333269 0.4248 0.105812
9115 85 0.326623 0.421845 0.100763
161 715 0.346232 0.409824 0.0841098
162 715 0.351387 0.415372 0.083269
163 714 0.357377 0.411738 0.0825784
164 713 0.356378 0.405228 0.0815962
165 712 0.360703 0.401039 0.080439
166 714 0.349835 0.404151 0.0820252
167 718 0.341751 0.41062 0.0811152
168 718 0.344808 0.409244 0.0893419
169 718 0.351558 0.418717 0.0875679
170 718 0.350487 0.418289 0.0787556
9116 85 0.333432 0.42609 0.0970395
9270 85 0.0608189 0.445048 0.106247
9181 85 0.281254 0.441634 0.105265
9103 80 0.332531 0.449453 0.0987248
9104 431 0.327582 0.444321 0.101505
9105 408 0.330281 0.437816 0.100657
9110 85 0.330615 0.45452 0.0992881
9113 410 0.322796 0.444722 0.0989111
9112 410 0.326667 0.445242 0.106809
9109 85 0.333435 0.44862 0.0934154
9111 85 0.33731 0.449165 0.101324
9117 80 0.204681 0.0316592 0.132088
9118 431 0.204587 0.0324292 0.1397
9124 85 0.209534 0.0298918 0.130359
9125 85 0.200906 0.0280949 0.13044
9126 410 0.205626 0.0276401 0.142109
4823 718 0.458447 0.00103851 0.131858
4824 718 0.46003 0.00189144 0.123313
9119 408 0.198197 0.0347609 0.141709
9123 85 0.203696 0.0364238 0.129632
9127 410 0.208451 0.0359435 0.141286
3428 713 0.279134 0.0637427 0.138682
3429 712 0.284825 0.0620364 0.137172
3435 718 0.264519 0.0678939 0.135282
3427 714 0.274864 0.0671244 0.134869
3426 715 0.268966 0.0689535 0.138249
3436 718 0.269137 0.0742798 0.139368
21 715 0.413912 0.0970496 0.12718
22 715 0.419193 0.0916435 0.128132
23 714 0.421263 0.0904239 0.121518
24 713 0.419107 0.0950242 0.117216
25 712 0.42057 0.0954008 0.111277
26 714 0.41515 0.099176 0.120589
28 718 0.408884 0.0949572 0.127487
29 718 0.41717 0.0871532 0.130465
30 718 0.423415 0.0934517 0.131066
6 714 0.464933 0.09806 0.136634
8 718 0.454777 0.0989446 0.137187
4 713 0.467411 0.092563 0.139458
5 712 0.471931 0.0890498 0.137266
9005 80 0.197009 0.11836 0.139507
9011 85 0.19474 0.113407 0.139346
9012 85 0.193205 0.12196 0.138009
9013 85 0.201013 0.118506 0.135817
27 718 0.414377 0.101127 0.130764
1 715 0.459221 0.100492 0.139942
7 718 0.459239 0.105919 0.140416
181 715 0.47952 0.247544 0.127893
182 715 0.486974 0.248925 0.127134
183 714 0.487722 0.249165 0.120139
184 713 0.481916 0.249487 0.1169
185 712 0.48116 0.250159 0.110854
186 714 0.477089 0.248999 0.121453
187 718 0.477164 0.250631 0.131713
188 718 0.478603 0.242288 0.129019
189 718 0.490046 0.245008 0.129352
190 718 0.488356 0.253735 0.129291
8935 80 0.117635 0.294894 0.118379
8941 85 0.116216 0.291471 0.122376
8942 85 0.117042 0.292245 0.113657
8943 85 0.122911 0.296107 0.118981
8945 410 0.108073 0.299936 0.117843
8936 431 0.113333 0.30122 0.118538
8937 408 0.114247 0.304487 0.124766
8938 406 0.110547 0.309915 0.126144
8939 407 0.106241 0.312341 0.122491
8940 80 0.112252 0.313024 0.132884
8944 410 0.114754 0.304591 0.114483
8946 85 0.116534 0.316364 0.132375
8947 85 0.108019 0.315906 0.134753
8948 85 0.113458 0.309167 0.136544
3450 717 0.410878 0.315893 0.131011
3451 716 0.418297 0.317768 0.131552
3452 715 0.422942 0.31204 0.133507
3453 714 0.428313 0.312909 0.129043
3454 713 0.426871 0.316976 0.123982
3455 712 0.430402 0.318137 0.119108
3456 714 0.420845 0.319547 0.125233
3457 720 0.407889 0.320262 0.129678
3458 720 0.410075 0.31209 0.127184
3459 720 0.409014 0.313967 0.135754
3460 719 0.419008 0.32196 0.134968
3461 718 0.424547 0.312315 0.138706
3462 718 0.420653 0.307184 0.132593
9091 408 0.37549 0.359022 0.142547
9092 406 0.379768 0.356641 0.13796
9093 407 0.384814 0.359505 0.135929
9094 80 0.377741 0.349798 0.1353
9100 85 0.374013 0.350353 0.131358
9101 85 0.382075 0.347215 0.133236
9102 85 0.37564 0.346725 0.139283
9098 410 0.376116 0.369221 0.14131
9257 80 0.0782398 0.429657 0.10931
9264 85 0.0826721 0.427225 0.111337
9265 85 0.0748106 0.425778 0.107618
9266 410 0.073416 0.431213 0.118895
9184 85 0.266268 0.433087 0.123592
9161 408 0.325137 0.427305 0.137722
9162 406 0.318944 0.42533 0.136036
9163 407 0.315031 0.422323 0.139694
9164 80 0.317117 0.427093 0.128852
9170 85 0.318635 0.423079 0.125487
9171 85 0.311726 0.427775 0.128409
9172 85 0.319561 0.43171 0.127288
9167 85 0.337966 0.426397 0.141432
179 718 0.0410974 0.438314 0.141529
9260 406 0.065871 0.441805 0.115254
9262 80 0.0597954 0.444562 0.111581
9268 85 0.0555279 0.441234 0.112255
9269 85 0.0584857 0.449481 0.113533
9258 431 0.074932 0.434149 0.114547
9259 408 0.0692363 0.437239 0.111666
9261 407 0.0672999 0.443661 0.120934
9267 410 0.0784578 0.437943 0.11627
9185 85 0.266527 0.438661 0.130466
9186 85 0.264719 0.44173 0.122376
9180 85 0.288603 0.4461 0.107208
9173 80 0.283474 0.445156 0.108778
9174 431 0.283252 0.442412 0.115917
9175 408 0.276492 0.441312 0.11775
9176 406 0.275135 0.439219 0.123982
9177 407 0.279283 0.43816 0.128389
9178 80 0.267691 0.43811 0.125169
9179 85 0.280745 0.44986 0.108414
9182 410 0.286025 0.437717 0.116243
9183 410 0.285577 0.445942 0.119372
9120 406 0.197153 0.0361836 0.148182
9122 80 0.190012 0.0384207 0.149602
9128 85 0.186801 0.0340743 0.150339
9129 85 0.189859 0.0414778 0.154113
9130 85 0.18805 0.0413697 0.145457
9121 407 0.201324 0.03574 0.152675
3434 719 0.266121 0.0603432 0.144074
3425 716 0.269347 0.0647107 0.144582
3430 714 0.276064 0.0626015 0.144491
3431 720 0.268212 0.0651013 0.155376
121 715 0.329692 0.0450069 0.157841
127 718 0.326209 0.0488873 0.156261
128 718 0.327087 0.0402184 0.157995
129 718 0.330971 0.0435359 0.168592
130 718 0.332605 0.0518187 0.16581
122 715 0.33301 0.0465384 0.164527
123 714 0.339741 0.0449259 0.163246
124 713 0.34102 0.0440205 0.156775
125 712 0.346523 0.0429865 0.154279
126 714 0.335234 0.0445095 0.153532
7027 80 0.0391169 0.0911186 0.156332
7028 714 0.0414562 0.0851937 0.159458
7029 713 0.0480313 0.0841602 0.160306
7030 712 0.0525741 0.0876262 0.157978
7031 714 0.0488144 0.0787532 0.164208
7032 80 0.0553108 0.0763101 0.165676
7033 85 0.0414622 0.0919483 0.151473
7034 85 0.0400892 0.095438 0.159506
7035 85 0.0337385 0.0907162 0.1556
7036 85 0.057586 0.0742 0.161195
7037 85 0.0549498 0.0724079 0.169455
7038 85 0.0585559 0.0802524 0.167589
3433 720 0.262859 0.0706033 0.151026
3424 717 0.267874 0.0684768 0.151099
3432 720 0.271443 0.0725252 0.151885
2 715 0.459663 0.0968964 0.14664
3 714 0.464044 0.0916032 0.145125
9 718 0.454822 0.0951016 0.148383
9006 431 0.199676 0.119926 0.146505
9015 410 0.195602 0.119861 0.150136
9007 408 0.204565 0.115096 0.148251
9008 406 0.207361 0.115372 0.154345
9009 407 0.206034 0.119483 0.158717
9010 80 0.21263 0.109979 0.155429
9014 410 0.201904 0.12491 0.146616
9016 85 0.217469 0.111687 0.15358
9017 85 0.213101 0.108851 0.160741
9018 85 0.211276 0.105391 0.152812
10 718 0.461899 0.100062 0.150472
9190 406 0.0956557 0.144314 0.164129
9191 407 0.0942639 0.141021 0.159131
9192 80 0.0902449 0.146835 0.16886
9198 85 0.088722 0.151878 0.167447
9199 85 0.0858797 0.143577 0.168625
9200 85 0.0920493 0.14692 0.174005
9187 80 0.113814 0.146605 0.165278
9188 431 0.107334 0.144264 0.161949
9189 408 0.101832 0.146159 0.166003
9193 85 0.114394 0.144358 0.170209
9194 85 0.118156 0.145197 0.162306
9195 85 0.113856 0.152019 0.165867
9196 410 0.106822 0.146514 0.157
9197 410 0.107398 0.138845 0.161297
4143 714 0.0322961 0.331852 0.159321
4144 717 0.0322425 0.327134 0.154021
4151 720 0.0274748 0.324491 0.153873
4152 720 0.0329624 0.329649 0.149232
4150 720 0.0362376 0.323489 0.154672
4138 717 0.0183195 0.346058 0.167663
4139 715 0.0252757 0.347161 0.164598
4140 714 0.0289696 0.341111 0.164257
4141 713 0.0277644 0.336787 0.159301
4142 712 0.0231828 0.337343 0.155217
4145 720 0.015355 0.350628 0.16742
4146 720 0.0187181 0.344584 0.172892
4147 720 0.0155761 0.342151 0.165024
4148 718 0.0280619 0.350718 0.167646
4149 718 0.0248492 0.349391 0.159635
9097 85 0.366433 0.366509 0.148908
9090 431 0.376616 0.365479 0.145256
9095 85 0.372027 0.363095 0.154813
9099 410 0.381692 0.365835 0.14723
4097 712 0.255683 0.373372 0.176494
4098 714 0.244719 0.37649 0.17605
4099 717 0.245333 0.378901 0.169404
4105 720 0.240547 0.380789 0.167612
4106 720 0.248986 0.382946 0.169187
4107 720 0.246977 0.374913 0.166064
9089 80 0.371527 0.366771 0.150821
9096 85 0.372248 0.3717 0.153023
180 718 0.0461565 0.431585 0.144385
4112 712 0.0981396 0.413751 0.168606
4117 720 0.0899255 0.409426 0.177753
4119 718 0.0931886 0.421936 0.177523
4111 713 0.102598 0.414343 0.172821
4113 714 0.109125 0.413463 0.171615
4114 717 0.111252 0.412459 0.16492
4120 720 0.116652 0.411776 0.164706
4121 720 0.108849 0.408048 0.162797
4122 720 0.109934 0.416775 0.161851
9160 431 0.327492 0.425906 0.144264
9168 410 0.32748 0.420511 0.145107
9169 410 0.324166 0.428158 0.14796
9159 80 0.334577 0.428692 0.145025
9166 85 0.336524 0.427745 0.150023
171 715 0.0427567 0.438177 0.152334
172 715 0.0448926 0.436831 0.145149
173 714 0.050712 0.440754 0.144612
174 713 0.0530211 0.442816 0.15051
175 712 0.0582397 0.445867 0.151517
176 714 0.0486414 0.44084 0.155117
177 718 0.0410865 0.433695 0.154942
178 718 0.0388198 0.441945 0.152533
6946 712 0.272753 0.447835 0.178271
9165 85 0.334651 0.434081 0.144223
4081 713 0.0614709 0.493791 0.175017
4083 714 0.0599599 0.489163 0.170417
4084 717 0.0603993 0.490901 0.163549
4090 720 0.0590815 0.486647 0.160413
4091 720 0.0570154 0.495023 0.162409
4092 720 0.0654792 0.492458 0.162304
4082 712 0.0629066 0.499651 0.17376
4128 714 0.119357 0.498147 0.17293
4129 717 0.118867 0.493172 0.167895
4135 720 0.119575 0.495385 0.162967
4136 720 0.12266 0.489327 0.168642
4137 720 0.113954 0.490801 0.168029
6982 712 0.258209 0.0204442 0.212818
6988 85 0.243575 0.0207819 0.21298
10325 407 0.344 0.00120285 0.200352
10331 410 0.352946 0.00355702 0.210054
9154 410 0.105937 0.229019 0.204012
9155 410 0.113373 0.233267 0.206075
9145 80 0.106881 0.238781 0.199397
9146 431 0.108026 0.233923 0.205197
9147 408 0.104896 0.236489 0.21102
9151 85 0.108989 0.243681 0.200511
9152 85 0.109244 0.236973 0.194835
9153 85 0.101562 0.239413 0.198402
101 715 0.28546 0.264673 0.196562
106 714 0.290579 0.264513 0.191737
107 718 0.280711 0.266323 0.194463
108 718 0.284842 0.259691 0.198692
102 715 0.288281 0.269524 0.201714
103 714 0.29507 0.269834 0.199882
104 713 0.296284 0.267158 0.193908
109 718 0.287662 0.26772 0.20682
110 718 0.286031 0.274466 0.201266
105 712 0.301659 0.267146 0.190961
8957 85 0.065539 0.344297 0.193516
8949 80 0.0703986 0.342661 0.191679
8950 431 0.0757176 0.348034 0.192853
8951 408 0.0738401 0.353932 0.189394
8952 406 0.0779915 0.359202 0.18949
8953 407 0.0834351 0.359423 0.192334
8954 80 0.0752392 0.365205 0.185692
8955 85 0.0699079 0.341533 0.18637
8956 85 0.0716939 0.338028 0.194231
8958 410 0.0761906 0.349111 0.198186
8959 410 0.0805802 0.346297 0.191084
8962 85 0.0723192 0.363597 0.181376
4103 718 0.250934 0.365438 0.192924
4104 718 0.256184 0.36476 0.18598
81 715 0.445055 0.354851 0.208446
82 715 0.443696 0.360647 0.2132
86 714 0.448558 0.350353 0.21257
87 718 0.447965 0.35632 0.204081
88 718 0.440402 0.352533 0.206798
89 718 0.438557 0.362433 0.212877
90 718 0.447106 0.364806 0.212327
8960 85 0.0720453 0.368187 0.188956
8961 85 0.0793276 0.368347 0.183922
4093 717 0.258295 0.373322 0.192338
4094 715 0.253451 0.368342 0.18906
4095 714 0.24853 0.371657 0.185173
4096 713 0.250091 0.373835 0.179042
4100 720 0.262361 0.370695 0.194849
4101 720 0.255721 0.376378 0.196041
4102 720 0.260505 0.376676 0.188648
158 718 0.364307 0.396204 0.198361
4108 717 0.0902391 0.41257 0.182199
4109 715 0.0951464 0.418394 0.181184
4115 720 0.0852279 0.414431 0.183275
4116 720 0.0918028 0.409426 0.186364
4118 718 0.0956778 0.421148 0.185857
4110 714 0.101563 0.416113 0.179188
3437 717 0.258468 0.428715 0.197331
3438 716 0.264357 0.42385 0.197963
3441 713 0.265097 0.413457 0.202734
3442 712 0.264406 0.40742 0.203594
3443 714 0.262047 0.417186 0.198137
3444 720 0.256048 0.428171 0.192468
3445 720 0.25472 0.427822 0.201188
3449 718 0.265247 0.426762 0.208414
3439 715 0.268187 0.424303 0.204546
3440 714 0.268992 0.417516 0.206272
3447 719 0.267811 0.424423 0.193781
3448 718 0.272964 0.426874 0.204029
151 715 0.365194 0.401061 0.196046
157 718 0.360477 0.403764 0.195696
152 715 0.37058 0.404931 0.199792
153 714 0.376246 0.403818 0.195764
154 713 0.374735 0.401316 0.18978
155 712 0.378651 0.400303 0.185173
156 714 0.368195 0.400101 0.189754
159 718 0.37132 0.403084 0.204866
160 718 0.369471 0.410264 0.199963
3446 720 0.26019 0.433869 0.197766
6943 80 0.26146 0.442965 0.18483
6949 85 0.260639 0.441742 0.179571
6950 85 0.26018 0.448206 0.185602
6951 85 0.258082 0.439947 0.187834
6944 714 0.268161 0.441735 0.186836
6945 713 0.273237 0.444707 0.183562
6947 714 0.278882 0.443877 0.187113
6948 80 0.284952 0.446808 0.184867
6952 85 0.286814 0.444184 0.180467
6953 85 0.288697 0.4465 0.188807
6954 85 0.284291 0.452068 0.183576
9298 85 0.391164 0.450895 0.201988
9297 85 0.391123 0.459536 0.200116
9296 85 0.393972 0.456755 0.208023
9290 80 0.393853 0.455585 0.202697
9295 410 0.410778 0.449186 0.193366
9294 410 0.413716 0.451046 0.20146
9293 85 0.411677 0.439119 0.204941
9292 85 0.41711 0.439419 0.198005
9291 85 0.408664 0.437267 0.196859
9289 407 0.403733 0.459893 0.197359
9285 80 0.412038 0.440484 0.199681
9286 431 0.410292 0.447861 0.198639
9287 408 0.403644 0.448993 0.200832
9288 406 0.400947 0.455078 0.199969
4079 715 0.0635075 0.495093 0.186679
4080 714 0.0613194 0.491184 0.181177
4086 720 0.0537888 0.497484 0.19096
4088 718 0.0647161 0.491745 0.190806
4089 718 0.0681294 0.497704 0.185412
4123 717 0.122793 0.498572 0.194209
4126 713 0.118373 0.496406 0.179322
4127 712 0.117424 0.490647 0.181306
4132 720 0.124782 0.493948 0.19211
4134 718 0.112511 0.497864 0.190745
4130 720 0.121325 0.497573 0.199365
4065 714 0.0513572 0.0250735 0.248496
4066 713 0.053597 0.0305665 0.24541
4068 714 0.0535528 0.0297185 0.238765
6980 714 0.259815 0.0270125 0.222088
6981 713 0.256234 0.0229927 0.218077
6983 714 0.250169 0.0221336 0.220827
6984 80 0.245256 0.0182409 0.2175
6989 85 0.240982 0.0175314 0.220796
6990 85 0.247183 0.0133302 0.216117
6979 80 0.26675 0.0279826 0.220936
6985 85 0.267788 0.0295308 0.215803
6986 85 0.269492 0.0233881 0.221961
6987 85 0.268575 0.0318499 0.224302
208 718 0.471273 0.0294631 0.228574
206 714 0.47999 0.0289753 0.223243
205 712 0.490301 0.0244006 0.224956
201 715 0.475243 0.0327548 0.226803
203 714 0.485186 0.0315146 0.232271
204 713 0.485602 0.0279453 0.226666
4075 720 0.0559203 0.0333869 0.229387
4067 712 0.0555282 0.0356575 0.248299
4069 717 0.0562266 0.0348285 0.234632
4076 720 0.0534612 0.0394774 0.235324
4077 720 0.0614629 0.0357351 0.235871
51 715 0.115835 0.0489469 0.227661
52 715 0.11977 0.0537844 0.232038
53 714 0.119137 0.0508579 0.238408
54 713 0.116749 0.0446459 0.238199
55 712 0.116114 0.0408406 0.242962
56 714 0.115235 0.0433303 0.231856
57 718 0.118377 0.0477576 0.222992
58 718 0.110868 0.0509044 0.226549
59 718 0.117708 0.0588281 0.231931
60 718 0.125028 0.0539582 0.230618
9047 80 0.299361 0.0578162 0.231937
9055 85 0.294021 0.0573557 0.230962
9056 410 0.29836 0.0651563 0.239844
9048 431 0.300996 0.0645906 0.235096
9053 85 0.302001 0.0571743 0.227212
9054 85 0.300833 0.0537197 0.235211
9057 410 0.306343 0.0649516 0.236125
210 718 0.480656 0.0407062 0.231891
209 718 0.476831 0.0348702 0.237398
207 718 0.473065 0.0366924 0.223732
202 715 0.479367 0.035461 0.232611
11768 80 0.496913 0.0375123 0.249664
11774 85 0.499511 0.0372599 0.244875
11775 85 0.492145 0.0349135 0.249186
9049 408 0.299019 0.0697512 0.230652
9052 80 0.297674 0.0810934 0.227163
9058 85 0.292429 0.0822196 0.22815
9060 85 0.29811 0.0790671 0.222119
9050 406 0.300294 0.0761256 0.232306
9051 407 0.303181 0.0780059 0.237399
9059 85 0.300521 0.0857356 0.227403
9144 85 0.32789 0.0989638 0.235351
31 715 0.159623 0.107736 0.245564
32 715 0.157499 0.11474 0.247676
37 718 0.163072 0.107744 0.241346
38 718 0.155293 0.10466 0.244331
39 718 0.152423 0.115936 0.246093
40 718 0.160918 0.118536 0.245779
4197 720 0.263804 0.122725 0.219196
4196 720 0.259159 0.115432 0.217316
4194 718 0.245442 0.131824 0.23165
4193 718 0.244518 0.128292 0.239583
4192 720 0.238472 0.12198 0.226942
4191 720 0.237093 0.119428 0.235264
4190 720 0.234031 0.127214 0.232469
4189 717 0.262221 0.117868 0.221115
4188 714 0.258536 0.11866 0.227127
4187 712 0.250514 0.124936 0.221996
4186 713 0.252931 0.122327 0.22703
4185 714 0.250358 0.122864 0.23318
4184 715 0.244763 0.127087 0.234273
4183 717 0.238205 0.123724 0.232103
4195 720 0.266656 0.114827 0.221984
9132 431 0.325213 0.115473 0.245647
9133 408 0.325242 0.109592 0.241685
9134 406 0.328097 0.109789 0.235616
9135 407 0.33082 0.114688 0.233093
9136 80 0.327591 0.103166 0.231888
9140 410 0.322401 0.119392 0.243086
9141 410 0.330314 0.117288 0.246336
9142 85 0.322854 0.102885 0.229199
9143 85 0.331659 0.102718 0.228288
131 715 0.447458 0.125569 0.23029
132 715 0.453205 0.13036 0.231725
134 713 0.444825 0.132061 0.239307
136 714 0.443256 0.126605 0.235839
137 718 0.449066 0.120381 0.229873
138 718 0.444806 0.126994 0.225743
139 718 0.454651 0.133239 0.227329
140 718 0.457567 0.127741 0.233676
133 714 0.450469 0.134479 0.236736