ITEM: TIMESTEP
0
ITEM: NUMBER OF ATOMS
150
ITEM: BOX BOUNDS pp pp pp
-1.0000000000000000e+02 1.0000000000000000e+02
-1.0000000000000000e+02 1.0000000000000000e+02
-1.0000000000000000e+02 1.0000000000000000e+02
ITEM: ATOMS id type xs ys zs
27 85 0.499487 0.495201 0.495349
126 408 0.498988 0.49747 0.499676
127 409 0.492283 0.49993 0.499714
134 85 0.489255 0.497141 0.496137
13 85 0.522053 0.499188 0.495067
30 85 0.526239 0.494654 0.49881
57 85 0.51202 0.495201 0.495349
87 85 0.524553 0.495201 0.495349
121 80 0.512462 0.492685 0.499609
122 82 0.511326 0.499158 0.499977
128 89 0.508318 0.489167 0.499331
129 89 0.517623 0.491055 0.499595
43 85 0.534586 0.499188 0.495067
60 85 0.538772 0.494654 0.49881
73 85 0.547119 0.499188 0.495067
90 85 0.551305 0.494654 0.49881
103 85 0.559652 0.499188 0.495067
117 85 0.537086 0.495201 0.495349
120 85 0.563838 0.494654 0.49881
136 80 0.562595 0.492685 0.499609
137 82 0.561459 0.499158 0.499977
141 408 0.549121 0.49747 0.499676
142 409 0.542416 0.49993 0.499714
143 89 0.558451 0.489167 0.499331
149 85 0.539388 0.497141 0.496137
144 89 0.567756 0.491055 0.499595
9 89 0.49491 0.491055 0.500405
25 85 0.497704 0.497991 0.503698
133 85 0.490481 0.499188 0.504933
1 81 0.500071 0.492685 0.500391
2 84 0.501208 0.499158 0.500023
6 408 0.513545 0.49747 0.500324
7 409 0.52025 0.49993 0.500286
8 89 0.504215 0.489167 0.500669
14 85 0.523278 0.497141 0.503864
18 80 0.501819 0.496138 0.50035
19 406 0.514331 0.498385 0.500012
20 407 0.515436 0.492169 0.500367
26 85 0.503318 0.491254 0.502442
31 81 0.512604 0.492685 0.500391
32 84 0.513741 0.499158 0.500023
36 408 0.526078 0.49747 0.500324
37 409 0.532783 0.49993 0.500286
38 89 0.516748 0.489167 0.500669
39 89 0.507443 0.491055 0.500405
48 80 0.514352 0.496138 0.50035
49 406 0.526864 0.498385 0.500012
50 407 0.527969 0.492169 0.500367
55 85 0.510237 0.497991 0.503698
56 85 0.515851 0.491254 0.502442
61 81 0.525138 0.492685 0.500391
62 84 0.526274 0.499158 0.500023
68 89 0.529282 0.489167 0.500669
69 89 0.519977 0.491055 0.500405
78 80 0.526886 0.496138 0.50035
85 85 0.522771 0.497991 0.503698
86 85 0.528385 0.491254 0.502442
99 89 0.53251 0.491055 0.500405
44 85 0.535811 0.497141 0.503864
66 408 0.538612 0.49747 0.500324
67 409 0.545317 0.49993 0.500286
74 85 0.548345 0.497141 0.503864
79 406 0.539397 0.498385 0.500012
80 407 0.540503 0.492169 0.500367
91 81 0.537671 0.492685 0.500391
92 84 0.538807 0.499158 0.500023
96 408 0.551145 0.49747 0.500324
97 409 0.55785 0.49993 0.500286
98 89 0.541815 0.489167 0.500669
104 85 0.560878 0.497141 0.503864
108 80 0.539419 0.496138 0.50035
109 406 0.55193 0.498385 0.500012
110 407 0.553036 0.492169 0.500367
115 85 0.535304 0.497991 0.503698
116 85 0.540918 0.491254 0.502442
148 85 0.540614 0.499188 0.504933
3 80 0.495553 0.503862 0.49965
10 85 0.491438 0.502009 0.496302
11 85 0.497052 0.508746 0.497558
135 85 0.492561 0.505347 0.49881
4 406 0.508064 0.501615 0.499988
5 407 0.50917 0.507831 0.499634
16 81 0.506338 0.507315 0.499609
17 84 0.507474 0.500842 0.499977
21 408 0.519812 0.50253 0.499676
22 409 0.526517 0.50007 0.499714
23 89 0.510482 0.510833 0.499331
24 89 0.501177 0.508945 0.499595
29 85 0.529545 0.502859 0.496137
33 80 0.508086 0.503862 0.49965
34 406 0.520597 0.501615 0.499988
35 407 0.521703 0.507831 0.499634
40 85 0.503971 0.502009 0.496302
41 85 0.509585 0.508746 0.497558
46 81 0.518871 0.507315 0.499609
47 84 0.520007 0.500842 0.499977
51 408 0.532345 0.50253 0.499676
53 89 0.523015 0.510833 0.499331
54 89 0.51371 0.508945 0.499595
63 80 0.520619 0.503862 0.49965
64 406 0.533131 0.501615 0.499988
70 85 0.516504 0.502009 0.496302
71 85 0.522118 0.508746 0.497558
76 81 0.531404 0.507315 0.499609
77 84 0.532541 0.500842 0.499977
84 89 0.526243 0.508945 0.499595
93 80 0.533152 0.503862 0.49965
100 85 0.529037 0.502009 0.496302
132 85 0.519313 0.504799 0.495349
52 409 0.53905 0.50007 0.499714
59 85 0.542078 0.502859 0.496137
65 407 0.534236 0.507831 0.499634
81 408 0.544878 0.50253 0.499676
82 409 0.551583 0.50007 0.499714
83 89 0.535548 0.510833 0.499331
89 85 0.554611 0.502859 0.496137
94 406 0.545664 0.501615 0.499988
95 407 0.546769 0.507831 0.499634
101 85 0.534651 0.508746 0.497558
106 81 0.543937 0.507315 0.499609
107 84 0.545074 0.500842 0.499977
111 408 0.557411 0.50253 0.499676
112 409 0.564116 0.50007 0.499714
113 89 0.548081 0.510833 0.499331
114 89 0.538776 0.508945 0.499595
150 85 0.542694 0.505347 0.49881
119 85 0.567144 0.502859 0.496137
147 85 0.569446 0.504799 0.495349
12 85 0.49322 0.504799 0.504651
15 85 0.519972 0.505347 0.50119
28 85 0.528319 0.500812 0.504933
42 85 0.505753 0.504799 0.504651
45 85 0.532505 0.505347 0.50119
72 85 0.518287 0.504799 0.504651
102 85 0.53082 0.504799 0.504651
123 80 0.516981 0.503862 0.50035
124 406 0.504469 0.501615 0.500012
125 407 0.503364 0.507831 0.500367
130 85 0.521096 0.502009 0.503698
131 85 0.515482 0.508746 0.502442
58 85 0.540852 0.500812 0.504933
75 85 0.545039 0.505347 0.50119
88 85 0.553386 0.500812 0.504933
105 85 0.557572 0.505347 0.50119
118 85 0.565919 0.500812 0.504933
139 406 0.554602 0.501615 0.500012
140 407 0.553497 0.507831 0.500367
146 85 0.565615 0.508746 0.502442
138 80 0.567114 0.503862 0.50035
145 85 0.571229 0.502009 0.503698
ITEM: TIMESTEP
78
ITEM: NUMBER OF ATOMS
150
ITEM: BOX BOUNDS pp pp pp
-1.0000000000000000e+02 1.0000000000000000e+02
-1.0000000000000000e+02 1.0000000000000000e+02
-1.0000000000000000e+02 1.0000000000000000e+02
ITEM: ATOMS id type xs ys zs
27 85 0.493775 0.494248 0.494206
103 85 0.564217 0.496614 0.491524
9 89 0.492371 0.486569 0.498709
134 85 0.486493 0.496186 0.496631
13 85 0.515859 0.498301 0.488609
30 85 0.522629 0.486535 0.487246
57 85 0.511458 0.493557 0.492309
87 85 0.518553 0.491551 0.490195
121 80 0.502947 0.49163 0.491961
122 82 0.504106 0.499004 0.494928
128 89 0.502424 0.484644 0.494536
129 89 0.51747 0.486587 0.496465
43 85 0.532042 0.499278 0.49236
60 85 0.538708 0.486154 0.49307
73 85 0.551423 0.491664 0.488318
90 85 0.557952 0.488523 0.48922
66 408 0.536894 0.493536 0.496526
117 85 0.535117 0.490541 0.4889
120 85 0.572502 0.496187 0.492963
47 84 0.514586 0.494769 0.497169
137 82 0.565648 0.494329 0.499929
79 406 0.546205 0.490611 0.495407
32 84 0.515818 0.496717 0.498914
143 89 0.564407 0.486336 0.497543
149 85 0.539862 0.496499 0.489005
80 407 0.54768 0.486028 0.494362
19 406 0.510832 0.484644 0.49076
20 407 0.513643 0.48057 0.489251
1 81 0.497064 0.488682 0.4998
109 406 0.556553 0.493973 0.496504
49 406 0.526479 0.491884 0.493869
50 407 0.528789 0.486358 0.49384
107 84 0.547715 0.499241 0.489893
2 84 0.50149 0.498067 0.497397
39 89 0.507521 0.490408 0.499472
77 84 0.531501 0.499734 0.501647
25 85 0.497306 0.494873 0.508491
133 85 0.487578 0.497657 0.505111
136 80 0.566633 0.486609 0.502595
116 85 0.542298 0.489101 0.510619
6 408 0.506947 0.499415 0.507353
7 409 0.509418 0.49941 0.505982
8 89 0.499296 0.483697 0.502058
14 85 0.514795 0.494091 0.512687
18 80 0.496497 0.4918 0.504723
17 84 0.499455 0.493017 0.501658
110 407 0.556012 0.487563 0.500629
26 85 0.500857 0.491149 0.507885
31 81 0.510231 0.487449 0.50228
148 85 0.546196 0.498843 0.512205
108 80 0.539771 0.489122 0.504676
37 409 0.530475 0.498923 0.511323
38 89 0.513894 0.48047 0.501246
118 85 0.572352 0.499677 0.501552
48 80 0.513249 0.48858 0.504771
104 85 0.561652 0.495348 0.508947
98 89 0.542588 0.480788 0.50033
55 85 0.507901 0.490764 0.511964
56 85 0.517308 0.490053 0.506159
61 81 0.52619 0.486952 0.505422
36 408 0.520717 0.498821 0.505128
68 89 0.526487 0.481229 0.501514
69 89 0.521617 0.482509 0.506328
78 80 0.526279 0.490243 0.504325
85 85 0.522983 0.493514 0.511932
86 85 0.531531 0.492618 0.503545
99 89 0.534809 0.482887 0.500572
44 85 0.533779 0.493226 0.512094
127 409 0.483534 0.498863 0.500195
67 409 0.549004 0.493997 0.505167
74 85 0.550767 0.494728 0.507725
144 89 0.569437 0.489517 0.500177
96 408 0.560106 0.497011 0.510951
91 81 0.53971 0.486061 0.50271
92 84 0.540007 0.498918 0.504975
126 408 0.488319 0.497895 0.501905
3 80 0.493414 0.505068 0.495349
10 85 0.491476 0.503782 0.491624
11 85 0.494253 0.509393 0.495582
135 85 0.483204 0.50482 0.49715
114 89 0.545025 0.513802 0.497965
113 89 0.548361 0.517156 0.49787
16 81 0.504678 0.509156 0.496885
147 85 0.573124 0.510459 0.496052
21 408 0.513344 0.504221 0.493202
22 409 0.522982 0.501854 0.493122
23 89 0.50639 0.517706 0.496773
24 89 0.499724 0.515152 0.498601
29 85 0.525465 0.503838 0.491301
33 80 0.505524 0.509229 0.496512
150 85 0.545017 0.508989 0.491237
111 408 0.56653 0.503654 0.495906
40 85 0.502404 0.5065 0.488723
41 85 0.509051 0.513453 0.490405
46 81 0.519086 0.513559 0.49585
119 85 0.567168 0.502672 0.495987
106 81 0.551075 0.51235 0.496952
53 89 0.520109 0.521305 0.498252
54 89 0.513977 0.516236 0.499514
63 80 0.521115 0.513025 0.495391
101 85 0.532788 0.50728 0.48997
70 85 0.512625 0.508207 0.485679
71 85 0.525829 0.512866 0.490453
76 81 0.534629 0.513081 0.496305
100 85 0.532443 0.506396 0.487269
84 89 0.52994 0.518097 0.499103
93 80 0.533936 0.510955 0.495179
89 85 0.554576 0.506049 0.49074
132 85 0.519118 0.508303 0.488819
52 409 0.539723 0.502886 0.495528
59 85 0.539733 0.503575 0.492893
83 89 0.535231 0.518771 0.499886
81 408 0.554024 0.506574 0.488197
82 409 0.557722 0.502833 0.490397
142 409 0.54885 0.502405 0.499237
112 409 0.573092 0.500491 0.495068
141 408 0.552384 0.503415 0.499437
12 85 0.487893 0.50757 0.502701
15 85 0.51529 0.507391 0.500551
28 85 0.525637 0.504759 0.508262
42 85 0.504491 0.507985 0.510931
45 85 0.53212 0.515561 0.509946
72 85 0.523013 0.510464 0.511269
102 85 0.530725 0.508882 0.510808
123 80 0.514352 0.508484 0.508596
124 406 0.49592 0.504527 0.506274
125 407 0.495777 0.510768 0.507889
130 85 0.517284 0.504577 0.512776
131 85 0.514075 0.511024 0.509102
58 85 0.546083 0.504996 0.506531
75 85 0.543206 0.505719 0.513366
88 85 0.554198 0.501768 0.507086
105 85 0.563495 0.505119 0.5094
97 409 0.563521 0.500693 0.507037
139 406 0.55737 0.50772 0.500741
140 407 0.559988 0.51289 0.500996
146 85 0.568721 0.510949 0.502517
138 80 0.572844 0.508726 0.502633
145 85 0.576194 0.505564 0.505503
4 406 0.506899 0.501627 0.504924
62 84 0.530357 0.500821 0.500579
5 407 0.506178 0.51416 0.505757
34 406 0.519926 0.50059 0.503785
35 407 0.520849 0.515716 0.505644
51 408 0.52716 0.509348 0.501929
64 406 0.537813 0.508916 0.505736
95 407 0.551543 0.514936 0.510335
65 407 0.540343 0.512451 0.505917
94 406 0.552035 0.508509 0.513113
115 85 0.538799 0.499681 0.513654
ITEM: TIMESTEP
1000
ITEM: NUMBER OF ATOMS
150
ITEM: BOX BOUNDS pp pp pp
-1.2180782424439809e+02 1.2180782424439809e+02
-1.2180782424439809e+02 1.2180782424439809e+02
-1.2180782424439809e+02 1.2180782424439809e+02
ITEM: ATOMS id type xs ys zs
79 406 0.54161 0.494853 0.492323
9 89 0.49588 0.490159 0.4976
134 85 0.483115 0.495967 0.498485
17 84 0.505621 0.492763 0.497391
120 85 0.573765 0.496699 0.489243
107 84 0.552824 0.492995 0.496591
69 89 0.533596 0.497686 0.495411
90 85 0.550371 0.497242 0.480684
106 81 0.557569 0.499133 0.496419
1 81 0.499145 0.493267 0.497116
128 89 0.498133 0.499514 0.490536
112 409 0.570929 0.498333 0.492306
109 406 0.559905 0.491892 0.495305
47 84 0.521808 0.495592 0.498561
81 408 0.5461 0.498526 0.488713
19 406 0.509485 0.491655 0.491152
20 407 0.510621 0.486877 0.489893
49 406 0.524822 0.494284 0.492459
50 407 0.525564 0.489414 0.491439
2 84 0.496742 0.499028 0.499417
110 407 0.561109 0.488177 0.498251
66 408 0.546916 0.500129 0.499281
88 85 0.554273 0.494809 0.486162
21 408 0.513772 0.496752 0.489169
80 407 0.541729 0.489791 0.490963
118 85 0.573166 0.497658 0.496091
8 89 0.499114 0.49208 0.492773
77 84 0.538368 0.497953 0.499312
38 89 0.514613 0.492575 0.498641
51 408 0.528083 0.499499 0.489654
111 408 0.565059 0.495841 0.491546
68 89 0.530321 0.495375 0.499772
82 409 0.551268 0.497916 0.485026
99 89 0.550924 0.489809 0.496917
59 85 0.534468 0.497617 0.483597
16 81 0.508125 0.498854 0.498733
29 85 0.519843 0.496508 0.482207
61 81 0.532456 0.499002 0.499214
22 409 0.517221 0.49929 0.484532
117 85 0.541852 0.488149 0.499686
10 85 0.488011 0.499502 0.492367
25 85 0.500518 0.490964 0.505825
133 85 0.479693 0.498782 0.504142
74 85 0.550707 0.496731 0.508651
18 80 0.50308 0.488923 0.502695
144 89 0.569041 0.497793 0.507705
127 409 0.482786 0.499645 0.501033
15 85 0.508231 0.495608 0.507743
39 89 0.515008 0.494923 0.504085
103 85 0.561357 0.498153 0.512665
7 409 0.507127 0.496043 0.511847
14 85 0.51066 0.497288 0.514277
26 85 0.506441 0.487202 0.505057
31 81 0.516027 0.496403 0.500048
87 85 0.535425 0.48897 0.504548
73 85 0.55419 0.495856 0.508046
48 80 0.522435 0.490699 0.503241
55 85 0.521464 0.491486 0.507526
56 85 0.519915 0.487111 0.502274
67 409 0.552759 0.499128 0.505264
57 85 0.526418 0.488777 0.503364
143 89 0.568489 0.493825 0.50172
91 81 0.549338 0.49171 0.501632
78 80 0.535799 0.493399 0.505143
85 85 0.531814 0.494073 0.507241
86 85 0.537371 0.494343 0.509244
136 80 0.566349 0.496863 0.504233
116 85 0.543985 0.490646 0.506933
75 85 0.556633 0.497278 0.504996
115 85 0.544878 0.485279 0.503435
108 80 0.545436 0.489909 0.501941
27 85 0.500763 0.48513 0.501792
98 89 0.552988 0.489428 0.504065
13 85 0.505656 0.492112 0.51337
6 408 0.503055 0.499811 0.511856
43 85 0.528533 0.499949 0.514415
3 80 0.491213 0.502322 0.493563
132 85 0.504317 0.513097 0.497942
11 85 0.492024 0.503833 0.489262
135 85 0.481262 0.50303 0.498526
102 85 0.538225 0.511601 0.499612
24 89 0.50818 0.50021 0.494705
122 82 0.4971 0.507099 0.499204
129 89 0.50212 0.503369 0.492448
121 80 0.498562 0.501905 0.494607
142 409 0.552759 0.511167 0.497861
33 80 0.513617 0.506812 0.49603
40 85 0.515969 0.505949 0.492408
41 85 0.515353 0.510676 0.497475
46 81 0.523875 0.50161 0.499239
53 89 0.522581 0.502922 0.495288
58 85 0.536596 0.502783 0.488436
63 80 0.528208 0.510182 0.497437
101 85 0.538332 0.506205 0.49579
70 85 0.524978 0.510389 0.494325
71 85 0.531503 0.511952 0.495049
100 85 0.54296 0.509587 0.495713
42 85 0.509744 0.507974 0.49414
149 85 0.550159 0.511652 0.494318
114 89 0.558683 0.501345 0.492672
113 89 0.55435 0.501498 0.494911
150 85 0.556058 0.512784 0.49532
30 85 0.514703 0.501639 0.481674
148 85 0.55076 0.507777 0.496119
119 85 0.570966 0.502746 0.491437
93 80 0.540934 0.507569 0.499225
89 85 0.553496 0.501827 0.485051
52 409 0.533141 0.500825 0.486423
12 85 0.489087 0.506351 0.493836
60 85 0.531883 0.504277 0.483866
28 85 0.520031 0.502487 0.485941
147 85 0.569652 0.508493 0.498381
126 408 0.487897 0.501083 0.50359
124 406 0.490698 0.506687 0.503166
125 407 0.489345 0.510249 0.506262
146 85 0.569357 0.507897 0.505599
97 409 0.560034 0.50204 0.514404
62 84 0.529335 0.504173 0.500478
65 407 0.533132 0.507385 0.508668
92 84 0.543941 0.501756 0.507
96 408 0.553807 0.50227 0.514735
123 80 0.502578 0.510602 0.501205
130 85 0.505946 0.508874 0.503596
131 85 0.50119 0.513655 0.504163
4 406 0.499445 0.501385 0.507503
95 407 0.549544 0.510773 0.511692
5 407 0.498674 0.50586 0.510258
34 406 0.516431 0.503604 0.507536
35 407 0.517463 0.508362 0.508751
94 406 0.548753 0.505653 0.512031
37 409 0.524479 0.501752 0.51503
138 80 0.568932 0.505577 0.501716
145 85 0.572836 0.503425 0.502199
105 85 0.562201 0.505484 0.512587
83 89 0.547127 0.507678 0.503898
139 406 0.559968 0.507498 0.502722
140 407 0.561602 0.512208 0.502875
64 406 0.533899 0.503702 0.504999
137 82 0.563097 0.501884 0.501095
72 85 0.526874 0.513253 0.500446
76 81 0.542883 0.506491 0.503677
54 89 0.521861 0.50514 0.500574
141 408 0.5551 0.507527 0.501844
84 89 0.541527 0.509486 0.507112
45 85 0.525018 0.50619 0.515379
44 85 0.523162 0.500319 0.519068
32 84 0.513442 0.501925 0.500949
104 85 0.561781 0.501765 0.518519
36 408 0.5205 0.500012 0.510626
23 89 0.505612 0.501245 0.500978
ITEM: TIMESTEP
2000
ITEM: NUMBER OF ATOMS
150
ITEM: BOX BOUNDS pp pp pp
-1.2808266388559278e+02 1.2808266388559278e+02
-1.2808266388559278e+02 1.2808266388559278e+02
-1.2808266388559278e+02 1.2808266388559278e+02
ITEM: ATOMS id type xs ys zs
114 89 0.559443 0.498809 0.491918
9 89 0.499361 0.490992 0.496975
17 84 0.507067 0.493814 0.497451
1 81 0.501231 0.494822 0.496665
10 85 0.490399 0.494497 0.500048
19 406 0.509262 0.492534 0.491845
20 407 0.50923 0.488119 0.489956
2 84 0.497826 0.499021 0.499677
8 89 0.500727 0.495827 0.492543
16 81 0.509198 0.499241 0.499733
30 85 0.511283 0.496159 0.481573
47 84 0.524029 0.495895 0.498355
49 406 0.524786 0.494745 0.492408
50 407 0.525061 0.490272 0.490698
21 408 0.511585 0.496664 0.489633
11 85 0.492809 0.494504 0.493725
38 89 0.516618 0.493346 0.497219
51 408 0.526113 0.499001 0.489643
68 89 0.533399 0.495974 0.495353
59 85 0.532157 0.495238 0.485505
29 85 0.516546 0.49274 0.484448
61 81 0.53578 0.499136 0.496662
22 409 0.514128 0.496237 0.484737
79 406 0.542578 0.494694 0.495025
107 84 0.554856 0.494413 0.499263
90 85 0.544534 0.496007 0.483723
106 81 0.558158 0.499346 0.49594
109 406 0.560214 0.490818 0.497965
81 408 0.545228 0.498435 0.491698
116 85 0.553093 0.485468 0.499027
117 85 0.548138 0.487993 0.497663
88 85 0.550058 0.493636 0.487023
80 407 0.540694 0.490993 0.492655
111 408 0.562373 0.491226 0.492795
82 409 0.547465 0.496981 0.486658
52 409 0.529419 0.498496 0.485188
120 85 0.569404 0.490284 0.48882
112 409 0.567665 0.492794 0.491778
118 85 0.570125 0.492494 0.495237
115 85 0.552895 0.488101 0.492703
3 80 0.492538 0.496885 0.497258
27 85 0.506388 0.485192 0.498437
108 80 0.55212 0.489018 0.496814
119 85 0.567804 0.496699 0.490103
60 85 0.527133 0.497978 0.481638
28 85 0.51664 0.49962 0.484152
31 81 0.518209 0.496028 0.499967
57 85 0.528979 0.489051 0.499609
12 85 0.489965 0.499853 0.495631
77 84 0.539941 0.496027 0.500766
98 89 0.553701 0.495437 0.508655
25 85 0.504406 0.488502 0.503824
18 80 0.507323 0.488654 0.500744
15 85 0.508971 0.494941 0.508065
7 409 0.505986 0.495108 0.511006
14 85 0.507298 0.497765 0.514058
26 85 0.511135 0.487906 0.502453
84 89 0.538791 0.49746 0.510029
13 85 0.506051 0.491196 0.51269
6 408 0.500631 0.495994 0.50939
39 89 0.517582 0.493694 0.50347
99 89 0.548812 0.49271 0.505559
87 85 0.536293 0.48837 0.500951
48 80 0.525659 0.490873 0.501357
55 85 0.526013 0.491483 0.505555
56 85 0.522846 0.487697 0.500933
76 81 0.54187 0.497698 0.507037
78 80 0.537208 0.491433 0.503696
85 85 0.533798 0.492933 0.50572
86 85 0.53954 0.48931 0.50662
43 85 0.525438 0.499453 0.514243
134 85 0.48223 0.49808 0.50232
4 406 0.498595 0.49978 0.506085
36 408 0.518624 0.499857 0.509949
143 89 0.566451 0.496796 0.50366
91 81 0.551046 0.496364 0.505482
110 407 0.561826 0.487111 0.500548
135 85 0.480654 0.504176 0.499571
62 84 0.532466 0.503722 0.498006
132 85 0.500451 0.515619 0.49848
138 80 0.56832 0.503889 0.496956
24 89 0.507964 0.501632 0.496487
122 82 0.494767 0.509322 0.499427
129 89 0.501875 0.506077 0.49676
121 80 0.49793 0.504615 0.497031
42 85 0.511822 0.508493 0.497791
146 85 0.570715 0.506402 0.499457
128 89 0.496781 0.504329 0.492941
69 89 0.536963 0.500768 0.492856
33 80 0.515311 0.506046 0.497472
40 85 0.515838 0.50512 0.493358
41 85 0.518314 0.508845 0.498574
137 82 0.562618 0.503097 0.499144
53 89 0.524304 0.504104 0.49926
58 85 0.531737 0.502038 0.484751
63 80 0.530821 0.509133 0.49551
72 85 0.529005 0.511552 0.498546
70 85 0.527884 0.508803 0.492455
71 85 0.53399 0.511563 0.493991
147 85 0.568422 0.505699 0.493102
145 85 0.570776 0.50046 0.49694
141 408 0.557604 0.511099 0.497465
148 85 0.553005 0.514822 0.492305
142 409 0.555824 0.515955 0.49531
66 408 0.543521 0.505525 0.498665
149 85 0.553743 0.518491 0.498026
89 85 0.549819 0.500174 0.485109
113 89 0.555342 0.501822 0.493996
150 85 0.558924 0.518079 0.493326
126 408 0.487864 0.503729 0.503228
124 406 0.489603 0.508656 0.502731
125 407 0.48786 0.512241 0.505363
123 80 0.49864 0.513414 0.501633
130 85 0.501775 0.511613 0.503879
131 85 0.496767 0.516236 0.504208
46 81 0.527051 0.50112 0.500196
5 407 0.497408 0.503847 0.508272
32 84 0.514864 0.501033 0.501012
23 89 0.507067 0.500986 0.50286
67 409 0.549274 0.506112 0.499899
65 407 0.535092 0.505913 0.505144
34 406 0.515948 0.503159 0.506769
35 407 0.515051 0.507712 0.508011
37 409 0.521922 0.501842 0.514006
64 406 0.537129 0.505852 0.500818
75 85 0.551747 0.503057 0.500037
54 89 0.527078 0.50109 0.504429
45 85 0.523203 0.505856 0.513347
44 85 0.519978 0.501671 0.517788
100 85 0.548074 0.511691 0.508505
97 409 0.556972 0.503265 0.516905
92 84 0.546504 0.501474 0.508581
96 408 0.552017 0.500856 0.515994
95 407 0.547902 0.50818 0.516461
94 406 0.548444 0.503725 0.514214
105 85 0.557831 0.506437 0.514172
83 89 0.541723 0.501639 0.506837
139 406 0.561585 0.509237 0.500228
140 407 0.563958 0.511643 0.503628
73 85 0.551419 0.506416 0.503526
101 85 0.543651 0.511261 0.505158
74 85 0.549429 0.51029 0.499792
103 85 0.560063 0.500387 0.516408
104 85 0.557259 0.50484 0.520851
144 89 0.565805 0.502604 0.507127
133 85 0.480442 0.503292 0.506446
127 409 0.482542 0.502288 0.502887
102 85 0.54137 0.509925 0.510562
93 80 0.544834 0.508756 0.50832
136 80 0.56386 0.500129 0.504257
ITEM: TIMESTEP
3000
ITEM: NUMBER OF ATOMS
150
ITEM: BOX BOUNDS pp pp pp
-1.2944321532741554e+02 1.2944321532741554e+02
-1.2944321532741554e+02 1.2944321532741554e+02
-1.2944321532741554e+02 1.2944321532741554e+02
ITEM: ATOMS id type xs ys zs
9 89 0.499695 0.490873 0.497221
17 84 0.507047 0.494602 0.497312
1 81 0.500962 0.494849 0.496748
12 85 0.489346 0.496783 0.496553
19 406 0.508911 0.49342 0.491751
20 407 0.507984 0.489187 0.489844
2 84 0.497101 0.498366 0.499928
8 89 0.499947 0.495544 0.492713
16 81 0.509258 0.499823 0.49958
30 85 0.509801 0.495228 0.481632
21 408 0.511446 0.4972 0.489268
11 85 0.492131 0.491293 0.499238
3 80 0.491817 0.495466 0.499699
27 85 0.505815 0.486544 0.499935
47 84 0.524527 0.496219 0.498758
49 406 0.524532 0.494938 0.492688
50 407 0.523166 0.490651 0.491144
38 89 0.516879 0.493987 0.497213
51 408 0.525712 0.498594 0.48933
68 89 0.533619 0.495368 0.495921
59 85 0.530958 0.495441 0.484158
29 85 0.515716 0.492833 0.484023
61 81 0.535981 0.498556 0.497119
22 409 0.513081 0.496123 0.484129
52 409 0.527196 0.497345 0.48419
60 85 0.524433 0.494907 0.482144
28 85 0.515069 0.499451 0.482495
112 409 0.566744 0.488117 0.494109
57 85 0.529536 0.489328 0.499204
87 85 0.537175 0.487908 0.499778
79 406 0.543455 0.494566 0.495005
69 89 0.536959 0.499875 0.493227
90 85 0.543863 0.49822 0.485091
119 85 0.56846 0.489172 0.490407
120 85 0.564729 0.484446 0.493616
81 408 0.545924 0.498502 0.49282
145 85 0.568397 0.499529 0.494515
118 85 0.569858 0.487571 0.496899
88 85 0.549388 0.494518 0.486644
80 407 0.542591 0.490382 0.49288
111 408 0.563162 0.49193 0.495659
82 409 0.547304 0.49808 0.487522
115 85 0.552589 0.490432 0.495371
108 80 0.553023 0.490825 0.499529
116 85 0.554403 0.487065 0.500893
25 85 0.508678 0.490573 0.504681
18 80 0.508515 0.489739 0.500555
15 85 0.506418 0.49451 0.513278
7 409 0.502215 0.494382 0.513049
14 85 0.500693 0.497478 0.515477
26 85 0.512225 0.488044 0.499481
13 85 0.50094 0.490746 0.514748
6 408 0.500595 0.494543 0.507782
4 406 0.498445 0.498773 0.505778
10 85 0.489588 0.495915 0.503246
39 89 0.517983 0.493858 0.503544
96 408 0.554397 0.497945 0.515592
48 80 0.52626 0.491001 0.50115
55 85 0.526902 0.49126 0.505302
56 85 0.523427 0.48792 0.500616
78 80 0.538689 0.490654 0.502571
85 85 0.535705 0.491294 0.505464
43 85 0.521801 0.499481 0.516731
107 84 0.556699 0.495219 0.501005
77 84 0.540749 0.495862 0.500181
117 85 0.549345 0.490848 0.5015
84 89 0.542495 0.495636 0.508379
99 89 0.554631 0.492201 0.508385
76 81 0.54383 0.498186 0.505214
86 85 0.541655 0.488447 0.504567
91 81 0.554906 0.495899 0.506306
110 407 0.564263 0.490839 0.504356
143 89 0.568237 0.49923 0.503883
54 89 0.52919 0.499609 0.505376
94 406 0.549723 0.498988 0.513286
103 85 0.560513 0.499312 0.520386
98 89 0.558113 0.498112 0.507921
31 81 0.518654 0.496289 0.500166
109 406 0.561828 0.492434 0.500629
92 84 0.549839 0.499353 0.50717
95 407 0.545574 0.498971 0.515618
147 85 0.564638 0.503874 0.490847
132 85 0.500243 0.514456 0.497801
24 89 0.507671 0.502789 0.497083
139 406 0.561534 0.509873 0.499762
129 89 0.499896 0.504891 0.495165
121 80 0.496363 0.503817 0.497159
42 85 0.513263 0.507797 0.495355
128 89 0.493634 0.503336 0.493991
62 84 0.53271 0.503244 0.498544
73 85 0.540563 0.516145 0.497258
33 80 0.516538 0.505674 0.49693
40 85 0.51833 0.504072 0.49351
41 85 0.519096 0.508602 0.49855
106 81 0.557596 0.500524 0.497934
58 85 0.527576 0.500919 0.481999
63 80 0.530146 0.506662 0.494157
72 85 0.529708 0.510785 0.495021
70 85 0.526155 0.505731 0.493829
71 85 0.531942 0.506254 0.490362
137 82 0.562729 0.503994 0.499146
141 408 0.558648 0.511663 0.495958
148 85 0.555156 0.517672 0.492059
142 409 0.557364 0.516986 0.49558
66 408 0.5399 0.508197 0.495697
149 85 0.555048 0.518262 0.498862
89 85 0.549776 0.501306 0.486429
113 89 0.554149 0.502842 0.497645
150 85 0.560848 0.519356 0.495428
67 409 0.542369 0.51314 0.494926
75 85 0.546368 0.512928 0.496089
74 85 0.542559 0.514579 0.490967
138 80 0.566515 0.503285 0.494573
146 85 0.569669 0.506072 0.494775
114 89 0.558043 0.499259 0.493916
133 85 0.481315 0.506411 0.508845
127 409 0.481381 0.504652 0.505012
126 408 0.486409 0.504793 0.502809
124 406 0.488981 0.509264 0.502452
125 407 0.487226 0.513466 0.503804
123 80 0.498308 0.513168 0.501309
130 85 0.501257 0.511949 0.504055
131 85 0.496409 0.516548 0.502963
5 407 0.497672 0.502674 0.508305
23 89 0.507318 0.500625 0.503181
46 81 0.527946 0.500859 0.501547
32 84 0.515138 0.501181 0.500672
65 407 0.536829 0.509848 0.504132
34 406 0.51576 0.503332 0.506229
35 407 0.513582 0.507348 0.507406
37 409 0.520035 0.50253 0.514425
64 406 0.536701 0.507392 0.500041
53 89 0.525409 0.504061 0.502483
45 85 0.522666 0.505821 0.514383
44 85 0.516485 0.503702 0.516378
136 80 0.565947 0.502741 0.504101
93 80 0.550548 0.505297 0.505891
100 85 0.554426 0.506009 0.504643
97 409 0.556973 0.501216 0.519117
134 85 0.480119 0.500655 0.505408
104 85 0.554608 0.501983 0.522514
36 408 0.519086 0.500719 0.509333
122 82 0.494475 0.508744 0.50016
105 85 0.558052 0.504868 0.517311
144 89 0.56891 0.505674 0.504776
83 89 0.541835 0.501753 0.50603
140 407 0.562447 0.512282 0.503783
102 85 0.550634 0.507363 0.509584
101 85 0.547609 0.507324 0.503583
135 85 0.478592 0.50666 0.502572
ITEM: TIMESTEP
4000
ITEM: NUMBER OF ATOMS
150
ITEM: BOX BOUNDS pp pp pp
-1.1895182667441462e+02 1.1895182667441462e+02
-1.1895182667441462e+02 1.1895182667441462e+02
-1.1895182667441462e+02 1.1895182667441462e+02
ITEM: ATOMS id type xs ys zs
9 89 0.498428 0.489113 0.498469
17 84 0.506174 0.494104 0.497696
1 81 0.499491 0.493434 0.497429
12 85 0.487695 0.493031 0.496491
19 406 0.507878 0.493278 0.49144
20 407 0.50633 0.489179 0.488689
8 89 0.498023 0.493484 0.493079
117 85 0.553384 0.487454 0.496931
30 85 0.507035 0.499762 0.481604
21 408 0.510508 0.497758 0.489332
106 81 0.559934 0.499604 0.496918
118 85 0.57603 0.484889 0.49999
47 84 0.524552 0.495838 0.499193
49 406 0.524325 0.493305 0.493118
50 407 0.522287 0.488626 0.492358
38 89 0.516349 0.493983 0.498518
51 408 0.526304 0.496448 0.48898
68 89 0.535365 0.495476 0.493188
59 85 0.529772 0.492496 0.481989
29 85 0.512541 0.494763 0.481326
61 81 0.537529 0.498945 0.495187
22 409 0.511049 0.498541 0.483454
52 409 0.525994 0.494775 0.483233
60 85 0.522372 0.492086 0.482405
77 84 0.542838 0.496321 0.49834
58 85 0.525581 0.498455 0.48053
87 85 0.53976 0.487741 0.498363
116 85 0.55971 0.484952 0.495822
114 89 0.559547 0.49875 0.492427
108 80 0.557527 0.488986 0.495813
115 85 0.55739 0.490245 0.49141
79 406 0.546647 0.495529 0.493203
119 85 0.571435 0.48051 0.496144
112 409 0.571641 0.48371 0.499415
88 85 0.554082 0.497783 0.484938
80 407 0.546431 0.491178 0.49051
111 408 0.568371 0.488464 0.497703
25 85 0.508856 0.490197 0.505797
18 80 0.508354 0.489035 0.501396
15 85 0.49957 0.496941 0.517518
7 409 0.498944 0.492892 0.515439
14 85 0.495143 0.491016 0.517177
13 85 0.502467 0.490226 0.516633
6 408 0.498549 0.49298 0.509439
4 406 0.49694 0.497734 0.506938
10 85 0.48615 0.495611 0.503222
2 84 0.495074 0.497058 0.500705
11 85 0.489944 0.4894 0.502461
27 85 0.505426 0.485525 0.501428
39 89 0.517854 0.494542 0.505496
48 80 0.527263 0.491166 0.502789
55 85 0.528788 0.492633 0.506856
56 85 0.524335 0.487743 0.503664
85 85 0.53913 0.49114 0.504904
3 80 0.489411 0.493605 0.500705
109 406 0.565598 0.491368 0.501789
31 81 0.51844 0.496613 0.501445
104 85 0.548081 0.494823 0.525054
95 407 0.543392 0.494727 0.513224
96 408 0.551853 0.49773 0.5176
78 80 0.541808 0.49068 0.501222
120 85 0.570191 0.481712 0.503291
110 407 0.566961 0.490986 0.506744
92 84 0.550708 0.498661 0.507081
57 85 0.530765 0.48919 0.500624
99 89 0.553356 0.489761 0.506029
97 409 0.550341 0.498474 0.523445
86 85 0.545668 0.488677 0.50252
91 81 0.555409 0.493842 0.505472
94 406 0.548222 0.496782 0.512985
103 85 0.554085 0.499059 0.526047
98 89 0.558136 0.494198 0.509155
107 84 0.559722 0.493732 0.500054
26 85 0.512231 0.487015 0.500011
132 85 0.500971 0.513812 0.497088
24 89 0.506208 0.503218 0.497434
129 89 0.497334 0.502961 0.493872
121 80 0.494191 0.502658 0.497175
128 89 0.490292 0.502137 0.494821
42 85 0.512759 0.507943 0.494042
62 84 0.533071 0.503558 0.496902
33 80 0.516391 0.506037 0.496068
40 85 0.518528 0.503712 0.492787
41 85 0.518985 0.509596 0.497327
122 82 0.493845 0.508632 0.499828
63 80 0.5309 0.506486 0.491315
72 85 0.532636 0.510628 0.490477
70 85 0.526419 0.507306 0.491311
71 85 0.531945 0.504368 0.487396
69 89 0.539156 0.501254 0.491579
147 85 0.564737 0.506158 0.488098
139 406 0.560852 0.51014 0.498244
82 409 0.551393 0.501251 0.48627
146 85 0.570792 0.508272 0.491748
137 82 0.564223 0.504664 0.497225
141 408 0.558176 0.512327 0.493788
148 85 0.555553 0.519623 0.489866
142 409 0.556868 0.51816 0.494002
66 408 0.539333 0.511608 0.49739
149 85 0.553528 0.519042 0.497014
89 85 0.553926 0.505067 0.486423
113 89 0.556091 0.501552 0.498082
150 85 0.560544 0.520629 0.495216
67 409 0.539519 0.517551 0.498792
75 85 0.543343 0.519631 0.497396
74 85 0.536235 0.519915 0.496549
138 80 0.567477 0.505105 0.491619
145 85 0.569486 0.501113 0.490597
28 85 0.514046 0.501908 0.482634