ITEM: TIMESTEP
0
ITEM: NUMBER OF ATOMS
150
ITEM: BOX BOUNDS pp pp pp
-1.0000000000000000e+02 1.0000000000000000e+02
-1.0000000000000000e+02 1.0000000000000000e+02
-1.0000000000000000e+02 1.0000000000000000e+02
ITEM: ATOMS id type xs ys zs
27 85 0.499487 0.495201 0.495349
126 408 0.498988 0.49747 0.499676
127 409 0.492283 0.49993 0.499714
134 85 0.489255 0.497141 0.496137
13 85 0.522053 0.499188 0.495067
30 85 0.526239 0.494654 0.49881
57 85 0.51202 0.495201 0.495349
87 85 0.524553 0.495201 0.495349
121 80 0.512462 0.492685 0.499609
122 82 0.511326 0.499158 0.499977
128 89 0.508318 0.489167 0.499331
129 89 0.517623 0.491055 0.499595
43 85 0.534586 0.499188 0.495067
60 85 0.538772 0.494654 0.49881
73 85 0.547119 0.499188 0.495067
90 85 0.551305 0.494654 0.49881
103 85 0.559652 0.499188 0.495067
117 85 0.537086 0.495201 0.495349
120 85 0.563838 0.494654 0.49881
136 80 0.562595 0.492685 0.499609
137 82 0.561459 0.499158 0.499977
141 408 0.549121 0.49747 0.499676
142 409 0.542416 0.49993 0.499714
143 89 0.558451 0.489167 0.499331
149 85 0.539388 0.497141 0.496137
144 89 0.567756 0.491055 0.499595
9 89 0.49491 0.491055 0.500405
25 85 0.497704 0.497991 0.503698
133 85 0.490481 0.499188 0.504933
1 81 0.500071 0.492685 0.500391
2 84 0.501208 0.499158 0.500023
6 408 0.513545 0.49747 0.500324
7 409 0.52025 0.49993 0.500286
8 89 0.504215 0.489167 0.500669
14 85 0.523278 0.497141 0.503864
18 80 0.501819 0.496138 0.50035
19 406 0.514331 0.498385 0.500012
20 407 0.515436 0.492169 0.500367
26 85 0.503318 0.491254 0.502442
31 81 0.512604 0.492685 0.500391
32 84 0.513741 0.499158 0.500023
36 408 0.526078 0.49747 0.500324
37 409 0.532783 0.49993 0.500286
38 89 0.516748 0.489167 0.500669
39 89 0.507443 0.491055 0.500405
48 80 0.514352 0.496138 0.50035
49 406 0.526864 0.498385 0.500012
50 407 0.527969 0.492169 0.500367
55 85 0.510237 0.497991 0.503698
56 85 0.515851 0.491254 0.502442
61 81 0.525138 0.492685 0.500391
62 84 0.526274 0.499158 0.500023
68 89 0.529282 0.489167 0.500669
69 89 0.519977 0.491055 0.500405
78 80 0.526886 0.496138 0.50035
85 85 0.522771 0.497991 0.503698
86 85 0.528385 0.491254 0.502442
99 89 0.53251 0.491055 0.500405
44 85 0.535811 0.497141 0.503864
66 408 0.538612 0.49747 0.500324
67 409 0.545317 0.49993 0.500286
74 85 0.548345 0.497141 0.503864
79 406 0.539397 0.498385 0.500012
80 407 0.540503 0.492169 0.500367
91 81 0.537671 0.492685 0.500391
92 84 0.538807 0.499158 0.500023
96 408 0.551145 0.49747 0.500324
97 409 0.55785 0.49993 0.500286
98 89 0.541815 0.489167 0.500669
104 85 0.560878 0.497141 0.503864
108 80 0.539419 0.496138 0.50035
109 406 0.55193 0.498385 0.500012
110 407 0.553036 0.492169 0.500367
115 85 0.535304 0.497991 0.503698
116 85 0.540918 0.491254 0.502442
148 85 0.540614 0.499188 0.504933
3 80 0.495553 0.503862 0.49965
10 85 0.491438 0.502009 0.496302
11 85 0.497052 0.508746 0.497558
135 85 0.492561 0.505347 0.49881
4 406 0.508064 0.501615 0.499988
5 407 0.50917 0.507831 0.499634
16 81 0.506338 0.507315 0.499609
17 84 0.507474 0.500842 0.499977
21 408 0.519812 0.50253 0.499676
22 409 0.526517 0.50007 0.499714
23 89 0.510482 0.510833 0.499331
24 89 0.501177 0.508945 0.499595
29 85 0.529545 0.502859 0.496137
33 80 0.508086 0.503862 0.49965
34 406 0.520597 0.501615 0.499988
35 407 0.521703 0.507831 0.499634
40 85 0.503971 0.502009 0.496302
41 85 0.509585 0.508746 0.497558
46 81 0.518871 0.507315 0.499609
47 84 0.520007 0.500842 0.499977
51 408 0.532345 0.50253 0.499676
53 89 0.523015 0.510833 0.499331
54 89 0.51371 0.508945 0.499595
63 80 0.520619 0.503862 0.49965
64 406 0.533131 0.501615 0.499988
70 85 0.516504 0.502009 0.496302
71 85 0.522118 0.508746 0.497558
76 81 0.531404 0.507315 0.499609
77 84 0.532541 0.500842 0.499977
84 89 0.526243 0.508945 0.499595
93 80 0.533152 0.503862 0.49965
100 85 0.529037 0.502009 0.496302
132 85 0.519313 0.504799 0.495349
52 409 0.53905 0.50007 0.499714
59 85 0.542078 0.502859 0.496137
65 407 0.534236 0.507831 0.499634
81 408 0.544878 0.50253 0.499676
82 409 0.551583 0.50007 0.499714
83 89 0.535548 0.510833 0.499331
89 85 0.554611 0.502859 0.496137
94 406 0.545664 0.501615 0.499988
95 407 0.546769 0.507831 0.499634
101 85 0.534651 0.508746 0.497558
106 81 0.543937 0.507315 0.499609
107 84 0.545074 0.500842 0.499977
111 408 0.557411 0.50253 0.499676
112 409 0.564116 0.50007 0.499714
113 89 0.548081 0.510833 0.499331
114 89 0.538776 0.508945 0.499595
150 85 0.542694 0.505347 0.49881
119 85 0.567144 0.502859 0.496137
147 85 0.569446 0.504799 0.495349
12 85 0.49322 0.504799 0.504651
15 85 0.519972 0.505347 0.50119
28 85 0.528319 0.500812 0.504933
42 85 0.505753 0.504799 0.504651
45 85 0.532505 0.505347 0.50119
72 85 0.518287 0.504799 0.504651
102 85 0.53082 0.504799 0.504651
123 80 0.516981 0.503862 0.50035
124 406 0.504469 0.501615 0.500012
125 407 0.503364 0.507831 0.500367
130 85 0.521096 0.502009 0.503698
131 85 0.515482 0.508746 0.502442
58 85 0.540852 0.500812 0.504933
75 85 0.545039 0.505347 0.50119
88 85 0.553386 0.500812 0.504933
105 85 0.557572 0.505347 0.50119
118 85 0.565919 0.500812 0.504933
139 406 0.554602 0.501615 0.500012
140 407 0.553497 0.507831 0.500367
146 85 0.565615 0.508746 0.502442
138 80 0.567114 0.503862 0.50035
145 85 0.571229 0.502009 0.503698
ITEM: TIMESTEP
353
ITEM: NUMBER OF ATOMS
150
ITEM: BOX BOUNDS pp pp pp
-1.0000000000000000e+02 1.0000000000000000e+02
-1.0000000000000000e+02 1.0000000000000000e+02
-1.0000000000000000e+02 1.0000000000000000e+02
ITEM: ATOMS id type xs ys zs
112 409 0.579194 0.49123 0.485894
111 408 0.575075 0.494208 0.490848
9 89 0.489239 0.493222 0.491186
84 89 0.551742 0.488098 0.494039
47 84 0.521271 0.49821 0.497077
17 84 0.499155 0.494334 0.495753
26 85 0.507041 0.486547 0.496462
98 89 0.561417 0.487032 0.499347
99 89 0.561962 0.493137 0.493298
51 408 0.526493 0.499152 0.48617
119 85 0.58002 0.494638 0.481725
89 85 0.537306 0.486196 0.476952
1 81 0.491213 0.493725 0.496258
60 85 0.527553 0.492172 0.478218
88 85 0.544846 0.481762 0.478055
90 85 0.537482 0.478787 0.481818
81 408 0.542042 0.487386 0.486087
83 89 0.549261 0.495678 0.491682
120 85 0.576919 0.486665 0.48396
52 409 0.527527 0.497522 0.479322
77 84 0.542124 0.489988 0.498029
79 406 0.53856 0.487106 0.491779
118 85 0.584044 0.489963 0.488031
82 409 0.540248 0.48334 0.480525
110 407 0.575264 0.484733 0.497036
80 407 0.533052 0.484395 0.492323
19 406 0.500726 0.495192 0.488156
20 407 0.500465 0.490354 0.484348
91 81 0.561841 0.492436 0.498723
109 406 0.573675 0.490616 0.4963
49 406 0.522933 0.495165 0.49014
50 407 0.520401 0.48988 0.488301
8 89 0.490054 0.488793 0.498302
18 80 0.501728 0.487153 0.497474
39 89 0.512315 0.499693 0.491212
76 81 0.549435 0.492575 0.496167
30 85 0.505794 0.497957 0.476659
2 84 0.486318 0.49859 0.500052
10 85 0.478044 0.491541 0.497995
27 85 0.499232 0.483263 0.494562
3 80 0.479232 0.496832 0.497362
11 85 0.478692 0.49797 0.492059
5 407 0.481202 0.498421 0.511126
25 85 0.500849 0.485803 0.502689
104 85 0.547927 0.49321 0.520376
87 85 0.538966 0.480185 0.502314
116 85 0.575956 0.49133 0.509397
4 406 0.486119 0.497055 0.507686
7 409 0.491889 0.49271 0.517095
95 407 0.55542 0.488335 0.510708
14 85 0.48761 0.489753 0.518763
97 409 0.550297 0.497965 0.519175
57 85 0.522085 0.48771 0.500607
143 89 0.582544 0.500488 0.509826
13 85 0.491936 0.497379 0.519927
94 406 0.553864 0.493889 0.508495
115 85 0.569043 0.486096 0.508752
108 80 0.570601 0.491308 0.508321
16 81 0.502777 0.499124 0.501103
96 408 0.551267 0.498856 0.51219
15 85 0.496428 0.489937 0.518276
48 80 0.519834 0.492439 0.502091
117 85 0.568192 0.49403 0.512363
6 408 0.491594 0.494036 0.510121
55 85 0.514552 0.491419 0.502618
56 85 0.521683 0.493405 0.507118
61 81 0.536976 0.494442 0.502117
23 89 0.504253 0.495682 0.505045
68 89 0.538612 0.494013 0.507288
69 89 0.5324 0.49154 0.502354
78 80 0.54321 0.483612 0.502326
85 85 0.544059 0.484694 0.507583
86 85 0.547504 0.48072 0.500582
92 84 0.554951 0.495615 0.501084
107 84 0.569073 0.49424 0.501331
44 85 0.511589 0.49933 0.522005
145 85 0.584674 0.501114 0.49765
128 89 0.485029 0.507444 0.493821
72 85 0.539124 0.51065 0.495207
146 85 0.585752 0.509745 0.498371
114 89 0.567716 0.503612 0.496709
38 89 0.516436 0.506837 0.492937
129 89 0.492669 0.507282 0.497571
147 85 0.580154 0.506615 0.492405
149 85 0.563384 0.520362 0.491671
125 407 0.475889 0.516281 0.497716
141 408 0.570508 0.514984 0.496813
121 80 0.487457 0.506193 0.498552
29 85 0.501323 0.505548 0.476654
33 80 0.505846 0.511008 0.497587
150 85 0.568157 0.525146 0.497447
148 85 0.561887 0.519536 0.500303
40 85 0.50298 0.510621 0.493004
41 85 0.509709 0.514742 0.496609
58 85 0.532333 0.499537 0.477719
138 80 0.582012 0.505867 0.497475
28 85 0.509484 0.505159 0.47992
142 409 0.565798 0.520308 0.496573
31 81 0.514693 0.50225 0.495304
63 80 0.538133 0.505354 0.494573
21 408 0.502157 0.501351 0.486098
70 85 0.535235 0.505273 0.490056
71 85 0.542799 0.503148 0.493157
102 85 0.556624 0.504803 0.495145
12 85 0.475271 0.499596 0.499897
59 85 0.523665 0.499826 0.476239
22 409 0.50476 0.502469 0.479551
54 89 0.52607 0.508095 0.498096
66 408 0.540152 0.511141 0.506908
65 407 0.534281 0.503494 0.512757
103 85 0.555017 0.498265 0.521891
32 84 0.508843 0.504286 0.500171
45 85 0.51247 0.507973 0.520433
36 408 0.510479 0.502007 0.512121
62 84 0.534692 0.501918 0.500703
123 80 0.489541 0.516712 0.50614
124 406 0.477589 0.513378 0.502886
42 85 0.502508 0.513265 0.50125
130 85 0.493918 0.51469 0.508675
131 85 0.487088 0.520059 0.509674
122 82 0.484791 0.511087 0.503971
37 409 0.513519 0.50299 0.518458
132 85 0.491173 0.519702 0.501887
105 85 0.547051 0.501924 0.521043
144 89 0.582438 0.509082 0.511383
139 406 0.573531 0.513484 0.50263
140 407 0.573423 0.517076 0.507606
133 85 0.464553 0.513912 0.512307
127 409 0.466551 0.512354 0.507477
74 85 0.543293 0.519935 0.511201
136 80 0.57935 0.504899 0.509741
126 408 0.473598 0.511676 0.50795
113 89 0.566762 0.503426 0.505427
34 406 0.511929 0.506168 0.507053
35 407 0.515578 0.511099 0.507611
53 89 0.524934 0.503787 0.505204
64 406 0.536412 0.50564 0.507403
24 89 0.498949 0.50195 0.503699
46 81 0.526772 0.503088 0.500135
43 85 0.518935 0.502334 0.518154
137 82 0.576377 0.506256 0.502754
100 85 0.55753 0.506178 0.503761
75 85 0.544589 0.512706 0.51617
67 409 0.541155 0.515137 0.512701
73 85 0.536461 0.516127 0.515308
134 85 0.464351 0.507514 0.506253
135 85 0.464875 0.515976 0.503749
101 85 0.549793 0.505299 0.500572
106 81 0.569983 0.501921 0.50136
93 80 0.554794 0.50333 0.500053
ITEM: TIMESTEP
1000
ITEM: NUMBER OF ATOMS
150
ITEM: BOX BOUNDS pp pp pp
-8.8351727449678222e+01 8.8351727449678222e+01
-8.8351727449678222e+01 8.8351727449678222e+01
-8.8351727449678222e+01 8.8351727449678222e+01
ITEM: ATOMS id type xs ys zs
9 89 0.480039 0.498217 0.494775
17 84 0.491852 0.499132 0.494205
1 81 0.484536 0.497241 0.498745
62 84 0.53427 0.494192 0.491594
58 85 0.525617 0.484433 0.470231
27 85 0.487855 0.491339 0.485287
71 85 0.543126 0.486827 0.48661
72 85 0.534939 0.486447 0.481055
109 406 0.57949 0.494474 0.49861
47 84 0.518862 0.489403 0.492809
26 85 0.497553 0.493414 0.484426
51 408 0.517556 0.485322 0.479254
60 85 0.525255 0.476087 0.475448
52 409 0.521514 0.480773 0.473537
46 81 0.52502 0.495564 0.490928
38 89 0.507741 0.49163 0.488234
119 85 0.57943 0.480117 0.486782
49 406 0.518225 0.483174 0.486598
50 407 0.51803 0.476756 0.488527
18 80 0.492976 0.492421 0.488671
39 89 0.507209 0.488643 0.497238
70 85 0.53475 0.481658 0.489098
59 85 0.517513 0.478802 0.469443
25 85 0.49397 0.486918 0.491198
111 408 0.577077 0.488801 0.494024
118 85 0.587736 0.48455 0.491041
99 89 0.563526 0.496982 0.494374
89 85 0.539999 0.468334 0.494321
88 85 0.546405 0.472082 0.487271
90 85 0.550011 0.467322 0.494392
81 408 0.546214 0.477952 0.496834
83 89 0.55048 0.494519 0.494822
63 80 0.536827 0.487141 0.486718
54 89 0.523291 0.497268 0.484897
82 409 0.545491 0.471019 0.493271
31 81 0.510273 0.49263 0.493737
120 85 0.58225 0.478728 0.496317
112 409 0.581963 0.482903 0.491708
84 89 0.55529 0.487129 0.498967
91 81 0.565408 0.495919 0.500185
4 406 0.48753 0.497698 0.51265
7 409 0.490405 0.486387 0.519671
14 85 0.490601 0.48917 0.52512
13 85 0.496253 0.486483 0.517549
15 85 0.488393 0.480539 0.520301
6 408 0.486389 0.490144 0.513798
55 85 0.517728 0.480217 0.501781
44 85 0.519297 0.496505 0.517811
57 85 0.526771 0.483099 0.49967
107 84 0.573257 0.500038 0.501355
77 84 0.543753 0.489335 0.503803
48 80 0.520886 0.485271 0.500184
98 89 0.566567 0.489976 0.501023
56 85 0.521211 0.489065 0.505181
23 89 0.499817 0.495219 0.503122
69 89 0.532152 0.493697 0.50375
104 85 0.557471 0.490086 0.527146
87 85 0.536498 0.490135 0.514339
95 407 0.560151 0.486296 0.513308
97 409 0.561154 0.49467 0.525911
94 406 0.559052 0.493271 0.512765
96 408 0.559386 0.498067 0.518978
61 81 0.53731 0.49427 0.500106
80 407 0.539041 0.476505 0.507181
78 80 0.542314 0.49137 0.512301
85 85 0.542262 0.497462 0.513231
86 85 0.54583 0.488126 0.516297
92 84 0.557797 0.496797 0.504993
103 85 0.567285 0.492799 0.525907
3 80 0.474385 0.499117 0.508698
115 85 0.573553 0.497176 0.513186
105 85 0.561575 0.499026 0.53055
36 408 0.513002 0.499274 0.508599
10 85 0.472872 0.493082 0.507706
110 407 0.586052 0.49485 0.500949
76 81 0.551614 0.49199 0.500361
79 406 0.542449 0.480329 0.50283
8 89 0.484486 0.491071 0.499098
140 407 0.575992 0.52265 0.488675
139 406 0.578235 0.520346 0.494685
66 408 0.541478 0.500836 0.482347
40 85 0.506573 0.512526 0.490917
19 406 0.490585 0.506104 0.489154
29 85 0.482927 0.519331 0.487797
33 80 0.508463 0.506783 0.489302
22 409 0.489079 0.519326 0.488618
42 85 0.51441 0.507604 0.487399
41 85 0.505235 0.50491 0.484454
32 84 0.507909 0.500909 0.495916
28 85 0.490329 0.524645 0.491683
65 407 0.535293 0.508228 0.491014
21 408 0.491851 0.51301 0.49265
75 85 0.548457 0.506512 0.474599
149 85 0.573994 0.534738 0.49671
106 81 0.573491 0.507562 0.496833
74 85 0.538881 0.507613 0.472723
30 85 0.491927 0.519726 0.482819
67 409 0.543243 0.507382 0.477499
102 85 0.553603 0.507095 0.499965
145 85 0.587489 0.503897 0.489234
146 85 0.589733 0.513316 0.486849
114 89 0.571821 0.506149 0.490981
147 85 0.581028 0.509473 0.483792
20 407 0.487763 0.505599 0.482824
73 85 0.543011 0.512468 0.480585
138 80 0.585243 0.509425 0.488591
53 89 0.523551 0.500275 0.494557
64 406 0.53713 0.501846 0.488246
137 82 0.580865 0.512049 0.495799
16 81 0.499488 0.50017 0.499016
113 89 0.568942 0.510866 0.49954
133 85 0.459013 0.525899 0.524644
127 409 0.460913 0.523319 0.519394
134 85 0.456574 0.519216 0.517623
135 85 0.460681 0.527955 0.515579
123 80 0.484825 0.521203 0.516083
124 406 0.471315 0.517921 0.512752
130 85 0.490778 0.520255 0.515232
131 85 0.484099 0.52256 0.521988
122 82 0.479549 0.514853 0.513268
12 85 0.473514 0.499837 0.514735
126 408 0.468415 0.520158 0.519395
24 89 0.498564 0.505009 0.502689
108 80 0.574779 0.502127 0.509905
45 85 0.51241 0.504194 0.518609
150 85 0.582812 0.535923 0.50134
93 80 0.554778 0.505361 0.505877
37 409 0.516873 0.501421 0.515251
34 406 0.512388 0.50379 0.502791
35 407 0.515244 0.510256 0.503004
142 409 0.5775 0.532399 0.501146
143 89 0.592262 0.51345 0.501133
5 407 0.492956 0.501131 0.515495
136 80 0.586409 0.511609 0.502625
43 85 0.52145 0.50539 0.514104
125 407 0.467998 0.517878 0.506497
144 89 0.584412 0.515188 0.507336
121 80 0.483006 0.51019 0.506356
11 85 0.470615 0.502263 0.505552
132 85 0.48363 0.526427 0.513401
100 85 0.559137 0.508707 0.508388
101 85 0.549325 0.506269 0.508707
68 89 0.538733 0.499768 0.501676
2 84 0.482345 0.501086 0.5065
129 89 0.489163 0.511426 0.506445
117 85 0.570782 0.506483 0.511783
141 408 0.578695 0.524721 0.501149
148 85 0.57458 0.533581 0.506224
128 89 0.480271 0.512566 0.50141
116 85 0.580664 0.503283 0.511684
ITEM: TIMESTEP
2000
ITEM: NUMBER OF ATOMS
150
ITEM: BOX BOUNDS pp pp pp
-7.4962001704526742e+01 7.4962001704526742e+01
-7.4962001704526742e+01 7.4962001704526742e+01
-7.4962001704526742e+01 7.4962001704526742e+01
ITEM: ATOMS id type xs ys zs
98 89 0.570933 0.48983 0.495093
64 406 0.538077 0.480498 0.496221
67 409 0.539928 0.466525 0.487844
120 85 0.576938 0.482679 0.469718
8 89 0.485426 0.494142 0.4937
51 408 0.507807 0.475399 0.493245
109 406 0.580832 0.495259 0.484516
49 406 0.514666 0.480496 0.49223
50 407 0.520196 0.48005 0.486355
65 407 0.541312 0.485424 0.490084
39 89 0.50461 0.493766 0.49189
59 85 0.509426 0.461534 0.489677
25 85 0.498019 0.499263 0.480541
31 81 0.511136 0.496205 0.493216
112 409 0.580718 0.488981 0.469749
110 407 0.586133 0.48999 0.487984
58 85 0.499872 0.466007 0.488334
111 408 0.577371 0.495137 0.476331
119 85 0.580052 0.491296 0.462847
47 84 0.515054 0.488313 0.49876
60 85 0.508083 0.46877 0.480505
52 409 0.506681 0.468002 0.487704
54 89 0.52796 0.493549 0.494881
74 85 0.536402 0.468871 0.482113
66 408 0.537201 0.471437 0.495468
91 81 0.569014 0.496554 0.495351
75 85 0.538725 0.459449 0.488814
73 85 0.547103 0.467293 0.48692
38 89 0.514317 0.496718 0.48668
118 85 0.587529 0.486253 0.470596
99 89 0.562954 0.496604 0.490832
10 85 0.468714 0.491855 0.499785
84 89 0.55566 0.487868 0.50021
90 85 0.566392 0.468725 0.518649
103 85 0.583112 0.486522 0.524072
53 89 0.524561 0.495279 0.506453
4 406 0.484264 0.494135 0.511127
7 409 0.483407 0.479732 0.51834
14 85 0.483587 0.483038 0.525033
13 85 0.490017 0.476747 0.517236
15 85 0.478665 0.473989 0.518285
6 408 0.481502 0.485438 0.510983
46 81 0.524896 0.490393 0.500983
69 89 0.533812 0.491717 0.515908
89 85 0.554483 0.46499 0.518095
82 409 0.559994 0.468839 0.514867
79 406 0.549958 0.480846 0.515442
77 84 0.548315 0.490724 0.512583
88 85 0.561269 0.464994 0.508698
56 85 0.508823 0.492314 0.511245
3 80 0.469434 0.497797 0.503324
87 85 0.545577 0.495925 0.526228
12 85 0.465726 0.496775 0.509451
80 407 0.545216 0.477344 0.521429
78 80 0.549857 0.49746 0.520235
81 408 0.5568 0.47737 0.512083
72 85 0.523942 0.472526 0.50597
76 81 0.55487 0.493824 0.504446
97 409 0.579204 0.492288 0.525851
92 84 0.56471 0.497834 0.505373
104 85 0.573007 0.489638 0.528999
95 407 0.574485 0.485627 0.509377
68 89 0.537189 0.498195 0.507534
94 406 0.571487 0.492756 0.511823
57 85 0.512055 0.48161 0.511234
70 85 0.52536 0.478348 0.515647
61 81 0.538191 0.49138 0.510018
71 85 0.534406 0.471894 0.511602
96 408 0.575224 0.497365 0.518856
55 85 0.502736 0.483587 0.505507
63 80 0.528723 0.476091 0.509798
48 80 0.509305 0.4866 0.507101
86 85 0.55655 0.497004 0.523374
105 85 0.582384 0.496368 0.530533
62 84 0.532646 0.484009 0.504354
5 407 0.489636 0.496843 0.516634
83 89 0.550663 0.498561 0.500339
40 85 0.512153 0.520169 0.491071
19 406 0.486978 0.517389 0.490253
27 85 0.486498 0.500584 0.478811
33 80 0.511651 0.51319 0.488335
9 89 0.477944 0.501737 0.490547
42 85 0.517679 0.511121 0.484875
41 85 0.506495 0.513898 0.483246
32 84 0.509133 0.506313 0.495869
148 85 0.570327 0.540226 0.465908
21 408 0.492788 0.523851 0.493573
30 85 0.492811 0.536504 0.488196
20 407 0.479668 0.518428 0.487152
16 81 0.499012 0.508122 0.498318
137 82 0.579259 0.517526 0.479946
18 80 0.492472 0.504115 0.481468
17 84 0.490981 0.50762 0.491429
26 85 0.49371 0.509633 0.477319
141 408 0.577598 0.533297 0.474873
138 80 0.585242 0.513597 0.472172
150 85 0.566327 0.541119 0.477422
113 89 0.570751 0.514396 0.490744
140 407 0.56525 0.525085 0.475367
139 406 0.573526 0.525695 0.476299
142 409 0.572058 0.541067 0.473114
106 81 0.573124 0.510739 0.485175
147 85 0.581215 0.509037 0.467981
145 85 0.591124 0.509497 0.47407
146 85 0.587819 0.518647 0.467341
114 89 0.566941 0.509445 0.481103
1 81 0.48361 0.500745 0.494956
149 85 0.576786 0.54678 0.473378
28 85 0.492321 0.536069 0.500026
107 84 0.576618 0.502463 0.490742
22 409 0.489897 0.533095 0.493771
136 80 0.586906 0.521103 0.486238
143 89 0.593131 0.522186 0.482959
116 85 0.590388 0.506315 0.494463
108 80 0.58414 0.504782 0.49755
144 89 0.585335 0.527573 0.489095
29 85 0.482666 0.534 0.494163
133 85 0.459188 0.536343 0.526163
127 409 0.45742 0.530456 0.522378
134 85 0.452132 0.526995 0.526198
135 85 0.455312 0.53252 0.515465
124 406 0.464656 0.517503 0.516668
122 82 0.472854 0.511543 0.517714
126 408 0.465091 0.524747 0.521933
125 407 0.458669 0.515716 0.511354
117 85 0.583138 0.510872 0.5017
128 89 0.475127 0.514532 0.50425
123 80 0.478577 0.512883 0.526213
130 85 0.480355 0.506239 0.528735
131 85 0.474317 0.515105 0.531652
24 89 0.498211 0.51379 0.502854
102 85 0.560309 0.512348 0.503182
37 409 0.513516 0.512511 0.520651
34 406 0.514305 0.508928 0.504498
44 85 0.516262 0.519031 0.519449
43 85 0.508409 0.513308 0.52525
121 80 0.478523 0.510453 0.50897
132 85 0.484176 0.517844 0.526175
2 84 0.47932 0.500718 0.504416
129 89 0.485184 0.513733 0.510147
93 80 0.563951 0.507967 0.508089
100 85 0.57086 0.511488 0.508177
101 85 0.560588 0.509214 0.514283
35 407 0.52209 0.511565 0.503993
85 85 0.5484 0.504488 0.518245
45 85 0.518345 0.507833 0.523327
11 85 0.464727 0.502878 0.49992
36 408 0.509493 0.50951 0.512518
115 85 0.585991 0.498829 0.501255
23 89 0.497774 0.502554 0.502455
ITEM: TIMESTEP
3000
ITEM: NUMBER OF ATOMS
150
ITEM: BOX BOUNDS pp pp pp
-6.6283976300524373e+01 6.6283976300524373e+01
-6.6283976300524373e+01 6.6283976300524373e+01
-6.6283976300524373e+01 6.6283976300524373e+01
ITEM: ATOMS id type xs ys zs
108 80 0.584853 0.491178 0.478074
84 89 0.556185 0.490817 0.497285
91 81 0.568893 0.496073 0.485167
9 89 0.471971 0.497139 0.493553
25 85 0.484523 0.491027 0.482859
112 409 0.556477 0.4975 0.455047
117 85 0.588142 0.493846 0.485213
41 85 0.510242 0.496879 0.487549
107 84 0.575581 0.497312 0.476102
115 85 0.583634 0.483231 0.4796
109 406 0.569395 0.492843 0.467044
99 89 0.561314 0.499131 0.482978
111 408 0.562508 0.499424 0.463628
26 85 0.494295 0.485738 0.489774
118 85 0.560065 0.492179 0.44951
116 85 0.590457 0.491458 0.472321
67 409 0.538563 0.468302 0.492928
65 407 0.538443 0.488712 0.497609
27 85 0.495837 0.496701 0.482674
74 85 0.532476 0.470041 0.488419
110 407 0.570641 0.484468 0.463792
75 85 0.538855 0.459998 0.494611
73 85 0.545345 0.470562 0.488094
18 80 0.490766 0.492965 0.487844
98 89 0.567062 0.487891 0.486755
120 85 0.549769 0.493608 0.457128
47 84 0.516473 0.485069 0.514992
51 408 0.516393 0.468466 0.52278
4 406 0.473676 0.49821 0.518822
7 409 0.476246 0.48604 0.531486
14 85 0.472558 0.479731 0.534951
13 85 0.476967 0.491467 0.537363
15 85 0.483488 0.483178 0.529582
6 408 0.47051 0.489307 0.52268
56 85 0.507688 0.495243 0.525668
57 85 0.51056 0.484722 0.530883
55 85 0.500826 0.484622 0.522365
48 80 0.508534 0.487362 0.523867
1 81 0.476924 0.497145 0.500039
53 89 0.526644 0.489238 0.527164
46 81 0.527355 0.489776 0.519055
69 89 0.546559 0.497075 0.524686
89 85 0.573049 0.470865 0.514813
82 409 0.566513 0.468986 0.510259
79 406 0.561881 0.485033 0.515664
77 84 0.556922 0.495356 0.51249
88 85 0.562166 0.463221 0.514502
54 89 0.526589 0.498069 0.519373
80 407 0.565894 0.484146 0.523803
31 81 0.512907 0.489822 0.504773
81 408 0.561 0.477669 0.508312
72 85 0.547457 0.472813 0.521733
76 81 0.558364 0.497814 0.500822
59 85 0.51609 0.454456 0.530092
70 85 0.535354 0.473485 0.525272
61 81 0.54582 0.495512 0.516424
71 85 0.543634 0.48197 0.530518
63 80 0.541237 0.478546 0.523425
23 89 0.495162 0.492793 0.509202
62 84 0.537998 0.48646 0.515596
52 409 0.517913 0.457552 0.522583
105 85 0.597519 0.496433 0.508445
90 85 0.569723 0.466174 0.502824
103 85 0.589445 0.497447 0.518988
8 89 0.477989 0.489123 0.501775
58 85 0.513148 0.453816 0.517479
94 406 0.577992 0.497668 0.502641
95 407 0.579898 0.48884 0.50319
10 85 0.459987 0.48862 0.505188
49 406 0.515979 0.473321 0.513591
64 406 0.538492 0.482438 0.504379
3 80 0.459999 0.496718 0.506281
60 85 0.525493 0.4556 0.521528
50 407 0.515459 0.469512 0.504979
12 85 0.454606 0.498026 0.51246
66 408 0.53886 0.472806 0.502874
39 89 0.507709 0.485116 0.500417
38 89 0.519513 0.489258 0.499578
114 89 0.572373 0.512968 0.471534
40 85 0.506365 0.509649 0.490702
19 406 0.486185 0.510441 0.491693
145 85 0.581816 0.500861 0.450612
33 80 0.510846 0.503308 0.492759
29 85 0.479196 0.52983 0.495445
42 85 0.518969 0.505144 0.491442
83 89 0.552754 0.503313 0.498172
102 85 0.564722 0.515284 0.488194
21 408 0.49007 0.518276 0.497724
30 85 0.490608 0.531805 0.488645
20 407 0.480287 0.511605 0.484291
136 80 0.596266 0.506476 0.46392
144 89 0.598609 0.505696 0.471553
17 84 0.487837 0.500345 0.496668
149 85 0.577779 0.540492 0.470482
143 89 0.602014 0.511956 0.461106
93 80 0.568253 0.513098 0.49535
22 409 0.487536 0.52858 0.495511
148 85 0.58568 0.541982 0.460145
137 82 0.585951 0.511472 0.463356
141 408 0.579586 0.528195 0.459796
138 80 0.580996 0.509063 0.452708
150 85 0.572026 0.541447 0.458824
113 89 0.583422 0.512489 0.479015
140 407 0.593357 0.526739 0.46979
139 406 0.587135 0.523049 0.464198
142 409 0.578668 0.538449 0.462184
106 81 0.579331 0.508843 0.473072
147 85 0.572926 0.511124 0.451826
100 85 0.575732 0.51671 0.495234
146 85 0.585265 0.512567 0.44638
92 84 0.569371 0.501289 0.496016
119 85 0.554061 0.504627 0.451793
11 85 0.456663 0.499676 0.499759
133 85 0.452071 0.548847 0.515204
127 409 0.448659 0.541886 0.512477
134 85 0.441688 0.540742 0.516466
135 85 0.445864 0.542853 0.504728
124 406 0.453625 0.524331 0.51167
122 82 0.46105 0.517204 0.516172
126 408 0.455184 0.533859 0.515272
125 407 0.447803 0.522233 0.504738
128 89 0.466567 0.515456 0.500444
123 80 0.464857 0.520704 0.526355
131 85 0.460564 0.525736 0.531147
130 85 0.466581 0.514506 0.531254
24 89 0.493384 0.505587 0.511755
37 409 0.512955 0.521763 0.523249
34 406 0.513303 0.509002 0.509866
44 85 0.507388 0.527379 0.525204
43 85 0.514597 0.518983 0.530946
121 80 0.468927 0.513433 0.508135
132 85 0.472359 0.523933 0.525332
104 85 0.596217 0.507904 0.514965
129 89 0.476603 0.516591 0.508974
45 85 0.51959 0.524963 0.519626
87 85 0.561743 0.501097 0.527427
36 408 0.508118 0.514465 0.516961
86 85 0.570184 0.504128 0.518348
96 408 0.584183 0.504747 0.506416
101 85 0.564377 0.515709 0.502249
35 407 0.52242 0.510102 0.508226
85 85 0.559422 0.510501 0.518745
68 89 0.542551 0.50253 0.512888
32 84 0.507861 0.500504 0.503823
78 80 0.562127 0.503138 0.519683
16 81 0.495819 0.500101 0.505537
2 84 0.470321 0.5019 0.508582
97 409 0.592231 0.501012 0.51221
5 407 0.479883 0.503056 0.523654
28 85 0.490576 0.533764 0.501088
ITEM: TIMESTEP
4000
ITEM: NUMBER OF ATOMS
150
ITEM: BOX BOUNDS pp pp pp
-6.0054796940774978e+01 6.0054796940774978e+01
-6.0054796940774978e+01 6.0054796940774978e+01
-6.0054796940774978e+01 6.0054796940774978e+01
ITEM: ATOMS id type xs ys zs
20 407 0.469493 0.483668 0.497062
95 407 0.58068 0.485927 0.48808
73 85 0.539774 0.472056 0.487043
76 81 0.560552 0.495461 0.497059
40 85 0.502834 0.496021 0.489993
19 406 0.477263 0.490155 0.499088
116 85 0.575288 0.486509 0.454469
110 407 0.556468 0.492828 0.448568
41 85 0.499824 0.482348 0.493904
115 85 0.567239 0.480706 0.463652
94 406 0.579565 0.496062 0.488394
42 85 0.513667 0.486755 0.492999
33 80 0.505323 0.489408 0.495727
105 85 0.602681 0.494975 0.487339
98 89 0.554303 0.494702 0.476938
108 80 0.573247 0.487511 0.463199
84 89 0.557735 0.487249 0.494953
117 85 0.580632 0.485722 0.468561
67 409 0.537789 0.466149 0.494026
65 407 0.535393 0.489055 0.49936
74 85 0.528619 0.466187 0.492477
30 85 0.472477 0.490737 0.478044
22 409 0.479581 0.496425 0.479877
75 85 0.540905 0.45774 0.493205
109 406 0.557778 0.499638 0.455723
107 84 0.567246 0.498658 0.464809
21 408 0.48182 0.497134 0.491499
28 85 0.486993 0.491864 0.47692
83 89 0.552219 0.499525 0.495415
1 81 0.474359 0.492962 0.519445
88 85 0.573499 0.459461 0.501998
103 85 0.600359 0.49821 0.501233
81 408 0.569811 0.47544 0.505716
17 84 0.483129 0.489565 0.510228
27 85 0.489232 0.471704 0.504864
16 81 0.493637 0.497104 0.511277
69 89 0.55357 0.498848 0.524676
8 89 0.47846 0.491202 0.527958
10 85 0.455347 0.495175 0.528241
18 80 0.485588 0.476678 0.511965
32 84 0.505806 0.49406 0.507884
47 84 0.519476 0.48797 0.526054
51 408 0.521005 0.477166 0.543087
90 85 0.585041 0.467927 0.503805
57 85 0.518767 0.496732 0.542103
55 85 0.505485 0.492084 0.536425
48 80 0.513339 0.495553 0.534502
53 89 0.535146 0.496313 0.532059
46 81 0.532061 0.492548 0.524182
26 85 0.490093 0.475789 0.519603
9 89 0.468141 0.486196 0.5191
31 81 0.512295 0.485433 0.515181
72 85 0.552997 0.472686 0.521277
59 85 0.516585 0.471854 0.558945
70 85 0.540717 0.470625 0.529338
61 81 0.551333 0.495465 0.51633
71 85 0.551565 0.479428 0.532375
63 80 0.546669 0.47684 0.525601
62 84 0.541867 0.486117 0.518448
52 409 0.517567 0.468666 0.550438
58 85 0.510077 0.463853 0.547422
49 406 0.519709 0.476525 0.532457
64 406 0.538637 0.482118 0.506512
60 85 0.52327 0.461555 0.551785
50 407 0.518483 0.467549 0.527435
66 408 0.540226 0.471251 0.504533
39 89 0.506593 0.478789 0.517083
38 89 0.51777 0.481298 0.50955
89 85 0.578051 0.462832 0.515263
82 409 0.577006 0.465841 0.507169
79 406 0.569806 0.483613 0.513634
77 84 0.562956 0.49375 0.510282
25 85 0.477656 0.471856 0.513019
80 407 0.574961 0.482239 0.522908
101 85 0.57045 0.518585 0.482803
146 85 0.586011 0.510805 0.43609
145 85 0.574144 0.503762 0.440591
29 85 0.479068 0.504062 0.475343
104 85 0.603557 0.508213 0.491902
102 85 0.574316 0.516327 0.496243
92 84 0.567626 0.501234 0.487643
143 89 0.599485 0.501513 0.448322
132 85 0.471653 0.532611 0.494429
118 85 0.549835 0.512917 0.439505
112 409 0.545049 0.513027 0.447205
120 85 0.537881 0.5074 0.446361
114 89 0.569892 0.516167 0.464705
119 85 0.543563 0.521901 0.448658
99 89 0.557723 0.508534 0.475617
136 80 0.593411 0.50209 0.455159
144 89 0.598032 0.502719 0.463054
149 85 0.608382 0.535957 0.443485
93 80 0.568322 0.514019 0.490271
148 85 0.598918 0.542445 0.45343
137 82 0.583847 0.51075 0.45402
141 408 0.596686 0.52509 0.44968
138 80 0.579219 0.511082 0.442155
150 85 0.608307 0.533552 0.458663
113 89 0.580502 0.509943 0.470896
140 407 0.583997 0.528945 0.462822
139 406 0.588293 0.522446 0.456523
142 409 0.603371 0.534853 0.451274
106 81 0.575107 0.50875 0.463832
147 85 0.574038 0.518183 0.441008
100 85 0.560064 0.516971 0.493168
96 408 0.587535 0.503507 0.490718
111 408 0.551681 0.508976 0.455873
91 81 0.561431 0.499979 0.476645
97 409 0.598612 0.501168 0.493007