ITEM: TIMESTEP
0
ITEM: NUMBER OF ATOMS
6440
ITEM: BOX BOUNDS pp pp pp
-7.1162899887960819e+01 7.1162899887960819e+01
-1.0000000000000000e+02 1.0000000000000000e+02
-1.0000000000000000e+02 1.0000000000000000e+02
ITEM: ATOMS id type xs ys zs
942 2 0.26699 0.0109329 0.0229129
944 3 0.268425 0.0132825 0.0108429
941 1 0.267085 0.00920302 0.0160995
950 5 0.267383 0.00925326 0.0047453
949 5 0.264537 0.00863711 0.00600349
946 4 0.26636 0.00869097 0.00607427
943 3 0.264915 0.00269125 0.014647
945 4 0.269724 0.00333118 0.0089872
948 5 0.271804 0.0035412 0.00945715
947 5 0.269405 0.00193269 0.00803713
3917 720 0.664098 0.0164653 0.0279016
3908 716 0.657352 0.00766406 0.0298559
3909 717 0.664065 0.0125542 0.0316976
3907 714 0.663108 0.0068212 0.0193702
3906 715 0.658008 0.00476162 0.0238474
3916 720 0.670988 0.0102123 0.031709
1187 5 0.888742 0.052131 0.00903441
1183 3 0.897245 0.0481669 0.00892428
1185 4 0.888832 0.0508996 0.00951222
1188 5 0.888607 0.0507935 0.010874
1181 1 0.893792 0.0420293 0.0105926
1189 5 0.883109 0.0460153 0.00573633
1190 5 0.880086 0.0471447 0.00747902
1186 4 0.882571 0.0466065 0.00734307
1184 3 0.884381 0.0413305 0.011253
1182 2 0.899929 0.0369294 0.012218
430 5 0.917887 0.0452784 0.00176481
429 5 0.919428 0.0429775 0.00209113
426 4 0.919224 0.044158 0.00122045
2841 719 0.157115 0.14596 0.0207537
2850 722 0.15462 0.141274 0.0228924
2851 722 0.151196 0.149404 0.0207413
2853 720 0.16353 0.149603 0.0298747
2842 717 0.165107 0.149285 0.0245465
2849 722 0.159733 0.144854 0.0157535
2852 720 0.171472 0.14629 0.0240455
2845 714 0.180035 0.156657 0.0280926
2844 715 0.174285 0.159058 0.0241601
2843 716 0.166687 0.155772 0.0219103
2846 716 0.174986 0.165239 0.0217546
2855 720 0.188768 0.16719 0.024506
2854 720 0.18011 0.169748 0.0302066
2847 717 0.181758 0.16937 0.0248874
2848 719 0.181728 0.176214 0.0216825
2857 722 0.184025 0.175555 0.0165794
2856 722 0.186897 0.179424 0.0240345
2858 722 0.174731 0.17848 0.0219392
5836 86 0.821812 0.262912 0.0324646
5828 81 0.815149 0.260828 0.0320335
690 5 0.321975 0.294318 0.00115031
686 4 0.323677 0.293854 0.00203149
689 5 0.324463 0.294994 0.00320876
687 5 0.318542 0.289348 0.0064187
685 4 0.320235 0.289014 0.00547394
688 5 0.319738 0.288022 0.00438302
683 3 0.327454 0.286314 0.00882676
682 2 0.34236 0.285225 0.00561767
681 1 0.333804 0.287932 0.00416911
5826 81 0.806219 0.271899 0.0296488
5834 90 0.81309 0.274235 0.0311672
533 3 0.809276 0.311479 0.00282046
2954 716 0.851794 0.329245 0.00180297
2963 720 0.854897 0.331176 0.0115675
2965 722 0.855972 0.319327 0.00898506
535 4 0.813004 0.317318 0.000783617
536 4 0.821702 0.316465 0.00163027
539 5 0.8218 0.316271 0.00327589
540 5 0.82319 0.317797 0.00109707
537 5 0.811924 0.318862 0.00178395
2966 722 0.867489 0.32057 0.00552725
2956 719 0.862322 0.32251 0.00894643
2964 722 0.866644 0.322579 0.0135308
2955 717 0.858489 0.329397 0.00710686
2962 720 0.864018 0.333104 0.00652427
2952 715 0.846052 0.334549 0.00112771
2953 714 0.84628 0.339392 0.00467
581 1 0.602847 0.386192 0.022336
584 3 0.598224 0.389484 0.017372
590 5 0.603682 0.388118 0.0116575
586 4 0.603957 0.387607 0.0125747
589 5 0.603278 0.385675 0.0120169
583 3 0.611784 0.38421 0.0207042
588 5 0.612345 0.389585 0.0157782
585 4 0.612082 0.388198 0.0152567
587 5 0.613623 0.387948 0.0145889
582 2 0.59796 0.385058 0.0281332
2747 720 0.597467 0.39763 0.00255087
2737 714 0.613481 0.400262 0.00265152
2736 715 0.610732 0.404637 0.00643006
2738 716 0.601915 0.406385 0.00635742
2749 722 0.586436 0.404921 0.0108212
2745 720 0.606992 0.410005 0.0182597
2744 720 0.609566 0.417517 0.0134283
2734 717 0.612525 0.41285 0.0155438
2741 722 0.617835 0.418309 0.0235961
2735 716 0.616696 0.408296 0.0105196
2740 719 0.586552 0.404997 0.0053641
2750 722 0.585898 0.41031 0.0041672
2739 717 0.595819 0.40299 0.00201973
2748 722 0.580744 0.401784 0.00385072
3566 716 0.64247 0.411717 0.00263614
3567 717 0.651922 0.409847 0.00347666
2742 722 0.622593 0.409914 0.0227479
2733 719 0.620598 0.414641 0.0201883
2743 722 0.626697 0.417193 0.0178592
3578 722 0.650794 0.407715 0.0140205
3576 722 0.662682 0.409252 0.0111745
3577 722 0.654627 0.41577 0.0121193
3568 719 0.655241 0.410614 0.0106581
3575 720 0.656324 0.41291 0.000269666
3574 720 0.653001 0.404664 0.00204487
108 5 0.419511 0.452086 0.0249166
105 4 0.421713 0.452503 0.0255157
107 5 0.423678 0.452354 0.0242045
103 3 0.4221 0.45908 0.0274397
110 5 0.424389 0.447837 0.0305436
106 4 0.42416 0.449056 0.0307187
109 5 0.426273 0.44949 0.0313138
101 1 0.417137 0.457295 0.0330717
1732 2 0.736419 0.46389 0.0206965
4506 722 0.706006 0.49388 0.0214782
4497 719 0.71273 0.491756 0.0229986
4505 722 0.711926 0.487493 0.0264667
1731 1 0.736964 0.470432 0.0229682
1738 5 0.741393 0.479255 0.0210342
1735 4 0.73935 0.479788 0.0214273
1740 5 0.739035 0.480137 0.028669
4498 717 0.718801 0.497213 0.0260612
4507 722 0.715988 0.490091 0.0183905
1734 3 0.74011 0.472599 0.0291835
1736 4 0.737883 0.479065 0.02762
1739 5 0.73666 0.479125 0.0277223
4499 716 0.72775 0.494465 0.0277001
1737 5 0.738916 0.480892 0.0209371
1733 3 0.734047 0.47491 0.0183919
4502 716 0.742349 0.495993 0.0302447
4504 719 0.758767 0.494313 0.0328978
4514 722 0.761469 0.494873 0.0278646
4508 720 0.715521 0.499258 0.0305372
4500 715 0.733597 0.498049 0.0314865
3910 719 0.661794 0.0155579 0.0385499
3919 722 0.655378 0.0185828 0.0383232
3920 722 0.661169 0.0115527 0.0423032
3918 722 0.667347 0.0189915 0.0400668
2623 722 0.966663 0.11857 0.0642972
2614 719 0.974257 0.119304 0.0643674
2622 722 0.977419 0.117675 0.0597233
2624 722 0.97561 0.124598 0.0647304
466 4 0.0581089 0.166439 0.0632628
470 5 0.0576576 0.165268 0.0624336
2563 722 0.461232 0.162673 0.0532316
526 4 0.625687 0.137736 0.0635579
524 3 0.628642 0.144152 0.0632521
529 5 0.623211 0.137623 0.0637318
530 5 0.626521 0.136722 0.0623098
462 2 0.0676968 0.18096 0.0633427
461 1 0.0666444 0.174049 0.0642839
469 5 0.056456 0.167247 0.0638325
464 3 0.0630311 0.17013 0.059073
2561 722 0.460005 0.169728 0.0587125
2553 719 0.457954 0.167583 0.0538485
2562 722 0.450267 0.166989 0.0536956
2565 720 0.460723 0.169329 0.0433426
2554 717 0.461384 0.171958 0.048087
2564 720 0.457173 0.176489 0.0477444
2873 720 0.44841 0.198594 0.0530862
2866 719 0.461465 0.198579 0.0477269
2875 722 0.459238 0.194516 0.0443771
2874 722 0.465622 0.196251 0.0516241
2557 714 0.471969 0.177524 0.0385909
2555 716 0.47086 0.173797 0.0491526
2556 715 0.474965 0.177255 0.0443394
2566 720 0.490089 0.180163 0.0373395
2567 720 0.483065 0.187286 0.0384953
2558 716 0.482686 0.180403 0.046189
2559 717 0.487662 0.183755 0.0410653
2569 722 0.493614 0.190855 0.0481888
2560 719 0.495981 0.187307 0.0443388
2568 722 0.500094 0.189878 0.0404808
2570 722 0.500411 0.183582 0.0468166
2870 720 0.425078 0.215528 0.0442909
2868 722 0.426159 0.227963 0.0417846
2867 722 0.429752 0.222955 0.0348461
2861 716 0.439466 0.214491 0.0433647
2862 715 0.440939 0.209324 0.0474727
2863 714 0.436016 0.207988 0.0523439
2864 716 0.448601 0.205931 0.0458783
2865 717 0.453144 0.20228 0.0509508
2872 720 0.455502 0.205735 0.0548016
2876 722 0.466035 0.20201 0.0449515
2859 719 0.431296 0.224381 0.0400283
2871 720 0.43173 0.220096 0.0499437
2860 717 0.431506 0.218427 0.0447712
2869 722 0.437984 0.22693 0.0401874
5700 86 0.75607 0.230997 0.0587526
5694 407 0.774242 0.230813 0.0654978
5695 408 0.78296 0.232056 0.0652599
5693 81 0.757152 0.234048 0.063084
5701 86 0.751986 0.238075 0.0629467
5711 409 0.75179 0.245594 0.0502354
5714 90 0.759235 0.250095 0.0602594
5723 81 0.758604 0.260278 0.049895
5724 407 0.759727 0.263659 0.0616124
5730 86 0.751314 0.258858 0.0509795
5731 86 0.759588 0.256798 0.0459684
5732 86 0.759339 0.265166 0.0473771
5809 86 0.795627 0.243112 0.0424348
5806 86 0.795457 0.266582 0.0376919
5805 86 0.784034 0.264987 0.0388565
5800 408 0.795975 0.255144 0.0418934
5798 81 0.789244 0.265341 0.0348717
5691 82 0.771726 0.239872 0.0574667
5692 85 0.767284 0.236507 0.0640558
5698 90 0.778621 0.241971 0.058537
5699 90 0.774029 0.236313 0.0540409
5706 82 0.766148 0.251924 0.0580511
5707 85 0.768033 0.246023 0.0529601
5708 81 0.775664 0.248032 0.0477359
5713 90 0.770985 0.251302 0.062552
5716 86 0.782288 0.249588 0.0503108
5717 86 0.773496 0.252011 0.0446615
5721 82 0.774615 0.262845 0.0548316
5722 85 0.764617 0.259573 0.0563233
5729 90 0.778573 0.260119 0.0509946
5737 85 0.783268 0.264501 0.0598604
5738 81 0.784663 0.258792 0.0645828
5739 407 0.792338 0.265726 0.055845
5741 409 0.799292 0.261248 0.0570358
5742 410 0.808328 0.261651 0.0545304
5745 86 0.786046 0.254052 0.0619648
5749 86 0.807896 0.259119 0.0499791
5835 86 0.812193 0.260518 0.0370002
5750 86 0.814227 0.2598 0.0574264
5725 408 0.756937 0.269367 0.060672
5820 86 0.786948 0.298084 0.0586442
5696 409 0.785482 0.288918 0.0386494
5697 410 0.790821 0.283374 0.041073
5703 86 0.796042 0.281618 0.0374925
5704 86 0.794831 0.28432 0.0456465
5705 86 0.786385 0.278782 0.0414454
5728 90 0.772861 0.268134 0.0532591
5736 82 0.781322 0.270999 0.0644994
5740 408 0.793215 0.270441 0.0517826
5744 90 0.777051 0.274803 0.0618964
5754 407 0.794133 0.280341 0.0630373
5755 408 0.789756 0.285198 0.0608103
5756 409 0.803117 0.279446 0.0619259
5757 410 0.808732 0.284173 0.0581418
5763 86 0.806159 0.286267 0.0537084
5794 86 0.762436 0.272855 0.0369064
5748 86 0.810009 0.266984 0.0537248
5764 86 0.814009 0.280858 0.0562278
5765 86 0.81291 0.288128 0.0609365
104 3 0.418164 0.45086 0.0354364
102 2 0.412823 0.46246 0.036651
4503 717 0.749865 0.498463 0.034218
4513 722 0.757407 0.488975 0.0335573
4511 720 0.747902 0.498121 0.0394768
4512 722 0.764462 0.495963 0.0361367
44 3 0.240424 0.0617706 0.0767151
50 5 0.245185 0.0597425 0.0833462
46 4 0.244174 0.0610467 0.0831822
49 5 0.242859 0.0612003 0.0841502
45 4 0.249191 0.066071 0.0839869
47 5 0.250079 0.0659275 0.08558
48 5 0.250966 0.0661505 0.0827936
2473 722 0.952355 0.0512122 0.0847356
2465 716 0.95098 0.0623262 0.0912837
2466 715 0.951412 0.0663829 0.0965621
2472 722 0.964136 0.0513985 0.0824707
2463 719 0.958007 0.0545689 0.0835089
2471 722 0.955592 0.05712 0.0789837
2474 720 0.964573 0.063327 0.0880576
2464 717 0.959615 0.0593847 0.0894068
2475 720 0.962505 0.056706 0.093703
42 2 0.232229 0.0719191 0.0734627
3337 722 0.234974 0.0907378 0.0780718
41 1 0.23843 0.0685204 0.0774846
43 3 0.242003 0.0705659 0.0837913
3336 722 0.238891 0.0938646 0.0702269
3327 719 0.240684 0.0932274 0.0754895
3328 717 0.249941 0.0894344 0.0762757
3338 720 0.255366 0.0914074 0.0730454
3339 720 0.249135 0.084242 0.0747684
3335 722 0.241126 0.0981126 0.0777313
3329 716 0.253479 0.0896171 0.0828861
3330 715 0.261279 0.0862014 0.0843809
3331 714 0.264454 0.0814092 0.0811439
3332 716 0.264957 0.0881016 0.090003
3341 720 0.27618 0.0815949 0.0918736
3333 717 0.269529 0.0833191 0.0940986
3340 720 0.264935 0.0789453 0.0942448
2468 716 0.943038 0.0683536 0.0986327
2467 714 0.958788 0.068016 0.0993412
2619 720 0.0105477 0.105041 0.0732016
2616 722 0.0237726 0.109768 0.0791087
2618 720 0.00646443 0.106496 0.0812089
2617 722 0.0191303 0.116328 0.0741233
2615 722 0.0174788 0.115832 0.0831392
2607 719 0.0179453 0.113055 0.0784024
2608 717 0.00913312 0.109051 0.0767923
2609 716 0.00291461 0.11388 0.0742356
2620 720 0.977041 0.109911 0.0688914
2610 715 0.994098 0.111966 0.0729539
2612 716 0.988237 0.116827 0.07083
2611 714 0.991555 0.106156 0.0739257
2613 717 0.978374 0.115246 0.0701119
2621 720 0.975028 0.116778 0.0749765
468 5 0.0661011 0.164168 0.0667943
467 5 0.0633906 0.16392 0.0688908
465 4 0.0643048 0.164817 0.0677887
527 5 0.62911 0.133375 0.0689374
525 4 0.629631 0.135495 0.068669
528 5 0.632023 0.135535 0.0685336
523 3 0.626225 0.139806 0.0734675
522 2 0.629751 0.151449 0.07255
521 1 0.628334 0.144965 0.0697783
463 3 0.0661303 0.171086 0.0702997
784 3 0.0663148 0.185851 0.0932474
781 1 0.0656236 0.179766 0.09588
782 2 0.0622934 0.17373 0.0926503
789 5 0.0725981 0.188074 0.0987431
790 5 0.0707696 0.190579 0.0985228
786 4 0.0705538 0.18868 0.0988277
5702 86 0.755198 0.231237 0.0673506
5825 86 0.746367 0.249321 0.087583
5824 86 0.737377 0.246262 0.0831245
5823 86 0.740596 0.243202 0.0908234
5817 410 0.743484 0.244869 0.0860716
5816 409 0.750889 0.241111 0.0829494
5815 408 0.761633 0.249594 0.0828282
5814 407 0.759526 0.243775 0.0814544
5726 409 0.759009 0.260706 0.0672449
5727 410 0.752126 0.263235 0.0720077
5734 86 0.750578 0.258991 0.0754853
5735 86 0.745292 0.263845 0.0696816
5822 86 0.779097 0.233468 0.0793123
5821 86 0.777882 0.240798 0.0835384
5819 90 0.77504 0.243307 0.0707341
5818 90 0.763682 0.245548 0.0691912
5813 81 0.773791 0.236731 0.0819299
5812 83 0.765634 0.238768 0.0774544
5811 81 0.767897 0.241329 0.0702695
5746 86 0.778225 0.258513 0.067475
5747 86 0.790166 0.259344 0.0679069
5761 86 0.794518 0.266657 0.0741097
5771 409 0.78208 0.266589 0.0833431
5772 410 0.777685 0.260087 0.0836909
5778 86 0.783032 0.256419 0.0848836
5779 86 0.775409 0.26006 0.0785106
5780 86 0.772291 0.259966 0.0874303
5808 86 0.821295 0.261664 0.0998894
11 1 0.228339 0.299141 0.0934485
14 3 0.236927 0.297892 0.0953061
12 2 0.224106 0.295651 0.0879865
5733 86 0.754654 0.267593 0.0745742
5743 90 0.77605 0.26955 0.0682294
5751 82 0.78476 0.28017 0.0731194
5752 85 0.789485 0.274996 0.0681489
5753 81 0.797217 0.270731 0.0712253
5758 90 0.787731 0.285167 0.0730054
5759 90 0.77791 0.281011 0.0706223
5760 86 0.80115 0.267938 0.0677479
5762 86 0.80178 0.273796 0.0743932
5766 82 0.791855 0.277989 0.0857821
5767 85 0.782604 0.278657 0.0808151
5768 81 0.77601 0.284096 0.0834762
5769 407 0.777284 0.271857 0.0815416
5770 408 0.769175 0.271849 0.0792228
5773 90 0.795995 0.273768 0.0848557
5774 90 0.788622 0.276962 0.0907075
5775 86 0.779294 0.28909 0.0831803
5776 86 0.774498 0.283157 0.0888083
5777 86 0.769908 0.283875 0.0803585
5781 82 0.807155 0.27992 0.0915043
5782 85 0.798484 0.283749 0.0878954
5783 81 0.802164 0.288058 0.0821195
5784 407 0.793785 0.288458 0.0932795
5785 408 0.790313 0.286051 0.0983223
5786 409 0.79372 0.29438 0.0916466
5787 410 0.789202 0.29944 0.0957426
5788 90 0.803469 0.276708 0.095143
5790 86 0.807778 0.291413 0.0832849
5791 86 0.796599 0.291494 0.0799666
5792 86 0.8051 0.284966 0.0782242
5839 86 0.850352 0.294217 0.0744219
5837 86 0.840272 0.279943 0.0940486
5833 90 0.828328 0.299611 0.0893259
5831 409 0.8485 0.290724 0.084711
5830 408 0.834887 0.289902 0.0789515
5829 407 0.839217 0.289746 0.0842022
5827 83 0.833405 0.288993 0.0910556
5807 86 0.813264 0.294038 0.0955566
5804 90 0.827238 0.279674 0.0879981
5803 90 0.820921 0.286416 0.0851765
5801 409 0.820665 0.271673 0.0974158
5799 407 0.818957 0.27789 0.0999955
5797 85 0.815971 0.283275 0.0947938
5789 90 0.80999 0.276069 0.0882963
5796 82 0.824303 0.2846 0.0896816
13 3 0.223726 0.302344 0.0985613
5840 86 0.760869 0.303831 0.0886232
5832 410 0.759092 0.308413 0.0910315
5838 86 0.76555 0.310998 0.0919055
5793 86 0.793418 0.304052 0.096524
5795 86 0.782824 0.301256 0.0931275
2316 722 0.803505 0.394164 0.0848277
2314 720 0.806954 0.388259 0.0946453
2315 720 0.810889 0.396485 0.0949733
2307 717 0.812238 0.391651 0.0926502
2306 716 0.821218 0.389014 0.0947448
2308 719 0.810704 0.392419 0.0850784
2318 722 0.810827 0.387735 0.0823086
2317 722 0.815305 0.396025 0.0824828
4188 722 0.0934404 0.0631914 0.129657
4177 714 0.123053 0.0528638 0.13162
4187 720 0.107549 0.0572909 0.127806
4186 720 0.111563 0.0652429 0.130638
4179 717 0.107828 0.0607248 0.132032
3343 722 0.276357 0.0897984 0.101274
3342 722 0.272564 0.0820498 0.10433
3334 719 0.270569 0.0862598 0.101198
3344 722 0.264321 0.0888721 0.103371
438 5 0.284364 0.0980169 0.114293
432 2 0.276119 0.0998055 0.128582
431 1 0.281335 0.0970654 0.123109
434 3 0.279844 0.090548 0.121346
440 5 0.286199 0.0905094 0.115401
437 5 0.287716 0.0979827 0.113917
435 4 0.286358 0.0974781 0.114838
439 5 0.288527 0.0912088 0.117073
436 4 0.286367 0.0914161 0.116519
2978 720 0.761313 0.0793388 0.124013
2971 714 0.750235 0.0851306 0.116653
2970 715 0.755777 0.0895975 0.117813
2972 716 0.753718 0.0960243 0.116738
2969 716 0.764525 0.0885055 0.12034
2968 717 0.767038 0.0818662 0.121396
2979 720 0.768269 0.0792951 0.116649
2967 719 0.775798 0.0814614 0.12578
2976 722 0.776922 0.0763502 0.127586
2977 722 0.781892 0.0831038 0.122961
2975 722 0.775235 0.0847012 0.130117
2480 722 0.930812 0.0680389 0.109671
2476 720 0.947821 0.0708142 0.107984
2470 719 0.93294 0.0728116 0.107469
2479 722 0.927471 0.0745719 0.104044
2478 722 0.933097 0.0762776 0.111611
2469 717 0.942788 0.0725986 0.104275
2477 720 0.945044 0.0776138 0.102829
433 3 0.28791 0.100487 0.1203
2973 717 0.760743 0.100857 0.118092
2984 722 0.750448 0.109013 0.119907
2974 719 0.756163 0.107681 0.116493
2982 722 0.76141 0.111682 0.116566
2983 722 0.752715 0.107598 0.111619
2980 720 0.762758 0.100703 0.123342
2981 720 0.766971 0.10004 0.115028
572 2 0.215166 0.156083 0.12839
788 5 0.0638987 0.187343 0.103918
785 4 0.0658078 0.187005 0.103947
787 5 0.06692 0.187692 0.10563
783 3 0.0659205 0.180391 0.1029
5710 408 0.786095 0.264042 0.107743
5718 86 0.768508 0.263139 0.109621
5810 86 0.831464 0.266483 0.101828
5802 410 0.824011 0.266499 0.10139
19 5 0.236582 0.299806 0.102779
5709 407 0.785052 0.267869 0.112339
5712 410 0.768836 0.268656 0.110316
5715 86 0.8023 0.268349 0.108607
5719 86 0.770043 0.271159 0.105651
5720 86 0.762484 0.270463 0.11281
16 4 0.237265 0.300769 0.101913
15 4 0.231518 0.305273 0.101585
17 5 0.2311 0.305838 0.10262
18 5 0.232308 0.306236 0.100623
20 5 0.23948 0.30133 0.102541
2691 720 0.425877 0.398251 0.131507
2689 722 0.411187 0.392696 0.132819
2688 722 0.40533 0.399879 0.132023
281 1 0.783065 0.395924 0.10925
284 3 0.789534 0.39815 0.113837
288 5 0.794394 0.390509 0.106602
283 3 0.785394 0.393254 0.103056
285 4 0.794577 0.392046 0.105667
287 5 0.795781 0.392031 0.104765
289 5 0.797452 0.398385 0.109014
286 4 0.797149 0.397062 0.109789
290 5 0.7992 0.397019 0.11065
282 2 0.774359 0.39743 0.110941
2304 715 0.822791 0.388544 0.10136
2305 714 0.816959 0.390641 0.105414
2303 716 0.83088 0.386051 0.103537
2311 722 0.840896 0.379277 0.111914
2313 720 0.829011 0.387615 0.113825
2302 717 0.834166 0.388422 0.109854
2312 720 0.83548 0.393785 0.109406
2301 719 0.843129 0.38436 0.110836
2310 722 0.847457 0.385637 0.115138
2309 722 0.847259 0.384702 0.106163
4818 722 0.383336 0.408426 0.133145
2403 720 0.397155 0.422787 0.115764
2690 720 0.418258 0.402928 0.126268
2680 717 0.419719 0.401679 0.131499
2683 714 0.428139 0.413975 0.126645
2682 715 0.426049 0.412938 0.132461
2399 722 0.418429 0.419559 0.114751
2392 717 0.404105 0.42214 0.117953
2402 720 0.403577 0.417837 0.121261
2391 719 0.411518 0.420232 0.112574
2400 722 0.40977 0.415307 0.110475
2394 715 0.404635 0.427858 0.128639
2395 714 0.401135 0.422959 0.131347
2396 716 0.406908 0.433164 0.132629
2393 716 0.406329 0.427902 0.121894
2401 722 0.412512 0.423869 0.108509
2693 720 0.434713 0.425092 0.131558
82 2 0.543573 0.453326 0.132629
6042 410 0.778171 0.496765 0.13173
6049 86 0.780684 0.495537 0.126985
6050 86 0.771192 0.498918 0.131364
6098 81 0.805601 0.484469 0.124497
6100 408 0.795648 0.495034 0.1207
6105 86 0.808588 0.488349 0.127688
6106 86 0.798445 0.484369 0.126259
6126 81 0.792308 0.473299 0.123096
6128 81 0.782477 0.480949 0.115273
6134 90 0.785184 0.471444 0.124685
6135 86 0.782877 0.485046 0.118783
6136 86 0.776062 0.478574 0.116001
5660 86 0.710808 0.0157254 0.165609
4189 722 0.0945468 0.0594377 0.137614
623 3 0.0938044 0.0547873 0.155797
4180 719 0.0979326 0.0627354 0.133967
4184 720 0.128592 0.0428853 0.142838
4176 715 0.119397 0.0540629 0.137044
4178 716 0.111781 0.0577268 0.137914
4175 716 0.122422 0.0517537 0.142894
4174 717 0.130751 0.0480629 0.143115
4185 720 0.135794 0.0492887 0.139249
4181 722 0.130436 0.0466363 0.153497
4173 719 0.134786 0.049393 0.150039
4182 722 0.14169 0.0473295 0.15044
4183 722 0.135356 0.0546589 0.151562
624 3 0.104894 0.0625171 0.158529
627 5 0.101569 0.0505839 0.158817
625 4 0.10116 0.0523663 0.159279
628 5 0.100809 0.0524108 0.160642
629 5 0.107312 0.055809 0.155636
626 4 0.10742 0.0559209 0.157218
630 5 0.109906 0.0554736 0.157851
621 1 0.0960791 0.061365 0.155961
2332 720 0.390069 0.0651721 0.145282
622 2 0.0903459 0.066773 0.155131
4190 722 0.0985371 0.067649 0.136068
2327 722 0.368921 0.0934159 0.152577
2329 722 0.367754 0.0882654 0.158951
2328 722 0.357472 0.0909574 0.154695
2319 719 0.364707 0.0891742 0.154098
2330 720 0.362664 0.0841037 0.144537
2320 717 0.365404 0.0829434 0.149496
2331 720 0.361456 0.0787365 0.151522
2322 715 0.376613 0.0754106 0.145421
2321 716 0.374909 0.0809127 0.148903
2323 714 0.370683 0.0713433 0.143586
2333 720 0.385476 0.0676465 0.137335
2325 717 0.389766 0.0692203 0.141599
2335 722 0.400647 0.0753635 0.135889
2326 719 0.400015 0.0710728 0.139465
2334 722 0.403519 0.0667733 0.137167
1405 4 0.391393 0.0763611 0.162362
1408 5 0.391936 0.0749106 0.162808
1410 5 0.400484 0.0793211 0.16102
1406 4 0.399062 0.0798969 0.16169
2324 716 0.385804 0.0750969 0.144361
1409 5 0.398496 0.0813052 0.161353
1407 5 0.390715 0.0762541 0.161152
2336 722 0.40418 0.0721667 0.143976
576 4 0.19733 0.152784 0.138662
579 5 0.196822 0.153813 0.137921
580 5 0.196184 0.152079 0.139021
578 5 0.204394 0.153707 0.143642
575 4 0.203299 0.154754 0.143155
571 1 0.208912 0.154963 0.13383
573 3 0.209783 0.158456 0.139714
574 3 0.203427 0.149534 0.134332
577 5 0.202444 0.155789 0.14453
617 5 0.965753 0.165112 0.161041
614 3 0.973445 0.175623 0.164018
619 5 0.974084 0.168041 0.164795
620 5 0.972264 0.168389 0.166388
616 4 0.972563 0.168714 0.165024
612 2 0.974849 0.180492 0.152913
611 1 0.971086 0.175425 0.157333
618 5 0.963816 0.16776 0.161523
615 4 0.966206 0.166831 0.161227
613 3 0.969843 0.16922 0.155061
2581 722 0.600134 0.231526 0.161565
2571 719 0.602705 0.22896 0.165971
2580 722 0.604755 0.224062 0.164303
197 5 0.697069 0.24612 0.136217
195 4 0.698292 0.245956 0.137904
198 5 0.699694 0.247232 0.138215
193 3 0.704024 0.240609 0.137533
192 2 0.711339 0.235278 0.147179
191 1 0.704912 0.239605 0.144122
196 4 0.693442 0.244649 0.142904
199 5 0.692132 0.24314 0.142869
194 3 0.699896 0.244072 0.147699
200 5 0.69222 0.245613 0.143261
4805 716 0.391792 0.396813 0.153787
2679 719 0.411359 0.397915 0.134588
4815 720 0.381069 0.390732 0.150198
4811 722 0.395607 0.384802 0.145176
4803 719 0.393963 0.38505 0.150459
4804 717 0.387665 0.390529 0.153026
4813 722 0.39118 0.380394 0.151895
4812 722 0.400908 0.385261 0.152863
4814 720 0.385191 0.389075 0.157934
2687 722 0.411206 0.398203 0.140223
4819 722 0.372217 0.404857 0.134018
4809 717 0.379163 0.408174 0.143112
4816 720 0.372183 0.407527 0.1454
4810 719 0.376712 0.408944 0.135805
4820 722 0.373523 0.413459 0.133397
4806 715 0.387411 0.40262 0.151443
4808 716 0.384463 0.40284 0.145279
4817 720 0.382108 0.412576 0.14527
2681 716 0.421367 0.407488 0.135269
2404 720 0.396997 0.431977 0.140142
4807 714 0.386524 0.407352 0.155193
402 2 0.397721 0.417906 0.16326
404 3 0.409902 0.413969 0.156425
401 1 0.401812 0.417355 0.157196
407 5 0.403641 0.416505 0.145366
406 4 0.411563 0.415177 0.14981
409 5 0.412855 0.416801 0.14978
410 5 0.412811 0.414049 0.14922
405 4 0.403474 0.415818 0.147114
408 5 0.402544 0.414563 0.147296
403 3 0.398823 0.420539 0.151255
2397 717 0.404541 0.432818 0.13955
2405 720 0.408032 0.428384 0.141503
2685 717 0.436706 0.421484 0.13556
2694 722 0.434104 0.4287 0.143294
2684 716 0.429121 0.417171 0.137219
2692 720 0.443231 0.418886 0.13401
2686 719 0.439224 0.424966 0.142181
2696 722 0.44605 0.427318 0.142418
2695 722 0.4381 0.421658 0.146445
2408 722 0.403235 0.443236 0.142649
2406 722 0.408079 0.438207 0.148861
2407 722 0.414737 0.441067 0.142203
2398 719 0.407869 0.439077 0.143491
83 3 0.55501 0.448842 0.141021
87 5 0.557504 0.450516 0.148205
85 4 0.556156 0.451424 0.147276
89 5 0.560439 0.45696 0.144743
90 5 0.558735 0.45824 0.14658
86 4 0.558589 0.457264 0.14561
88 5 0.554434 0.451465 0.147749
81 1 0.549346 0.453563 0.138573
84 3 0.551592 0.459437 0.141006
6129 407 0.735707 0.491594 0.166558
6130 408 0.74229 0.488745 0.163907
6131 409 0.72676 0.489559 0.166124
6139 86 0.730024 0.479874 0.161585
5996 409 0.807962 0.471346 0.144555
5997 410 0.801637 0.475846 0.141308
6003 86 0.79839 0.473699 0.136863
6004 86 0.795707 0.477533 0.144358
6005 86 0.805508 0.480093 0.138949
6039 407 0.792688 0.497749 0.138065
6040 408 0.793928 0.491584 0.138652
6044 90 0.804415 0.498323 0.151003
6048 86 0.777117 0.492216 0.134774
6054 407 0.787955 0.492124 0.15303
6055 408 0.793263 0.488057 0.155759
6056 409 0.780014 0.490353 0.15023
6057 410 0.776667 0.483501 0.150257
6058 90 0.789344 0.496656 0.164071
6059 90 0.799605 0.499732 0.16107
6063 86 0.781258 0.479535 0.149261
6064 86 0.77253 0.483546 0.145775
6065 86 0.771509 0.481873 0.154279
6092 86 0.770514 0.497129 0.1646
6120 86 0.797281 0.478176 0.164061
6028 90 0.812301 0.497903 0.141189
6032 86 0.827745 0.498477 0.137332
6094 86 0.830038 0.485531 0.135498
5565 86 0.68946 0.000763627 0.170658
5621 409 0.688021 0.00329621 0.199657
5623 90 0.702929 0.00257591 0.193428
5628 86 0.678655 0.0109121 0.197695
5630 86 0.673344 0.00319225 0.199595
5639 90 0.712456 0.00494579 0.185381
5649 407 0.713765 0.00285058 0.172128
5651 409 0.710683 0.00917765 0.173519
5652 410 0.706104 0.0130208 0.168739
5658 86 0.700746 0.0162182 0.170885
5646 82 0.728916 0.00338579 0.179152
5653 90 0.730728 0.0022906 0.184302
5654 90 0.727331 0.00887693 0.179362
5677 83 0.738187 0.00301181 0.17474
5679 407 0.746416 0.0070712 0.178465
5680 408 0.746502 0.00714892 0.184554
5681 409 0.753195 0.00968854 0.174626
5687 86 0.732982 0.0115168 0.169384
5689 86 0.763109 0.0113472 0.182828
1404 3 0.401602 0.0805087 0.167846
1401 1 0.393049 0.0810734 0.170689
1403 3 0.385284 0.0790492 0.166708
1402 2 0.391036 0.0826341 0.17744
4751 716 0.721662 0.0820295 0.197035
4759 722 0.721773 0.0829088 0.183245
4761 720 0.73298 0.0782516 0.191978
4750 717 0.729368 0.0830085 0.19267
4749 719 0.726442 0.0861014 0.186009
4757 722 0.723058 0.0909176 0.186756
4758 722 0.732389 0.0866864 0.182702
4760 720 0.734437 0.0862226 0.195181
142 2 0.301705 0.194147 0.179439
2354 722 0.194796 0.230758 0.188146
2344 719 0.197326 0.225816 0.186687
2353 722 0.192781 0.221878 0.188786
2352 722 0.196496 0.22561 0.181256
2340 715 0.217316 0.224681 0.198282
2342 716 0.208844 0.225847 0.195786
2343 717 0.207712 0.225054 0.188798
2351 720 0.210343 0.22012 0.187385
2341 714 0.224244 0.223769 0.194762
2350 720 0.21198 0.228775 0.186208
143 3 0.295848 0.20269 0.171029
149 5 0.290161 0.208832 0.17806
146 4 0.292332 0.20978 0.177964
147 5 0.293537 0.21027 0.170946
148 5 0.296635 0.210196 0.171624
145 4 0.294815 0.209683 0.171698
150 5 0.291778 0.211437 0.178772
141 1 0.299291 0.20091 0.17733
144 3 0.29938 0.206372 0.181609
2583 720 0.589063 0.225928 0.169356
2572 717 0.595163 0.228475 0.171428
2582 720 0.597356 0.225636 0.175799
2579 722 0.609004 0.231581 0.167513
2575 714 0.580533 0.230863 0.179218
2831 722 0.84611 0.23171 0.195941
2584 720 0.569848 0.243563 0.176784
2586 722 0.56663 0.251836 0.186027
2573 716 0.592664 0.235039 0.173334
2574 715 0.585275 0.235675 0.177347
2576 716 0.583513 0.241997 0.179029
2585 720 0.571617 0.239829 0.184507
2577 717 0.574324 0.243686 0.181188
2588 722 0.576048 0.254668 0.181317
2578 719 0.573746 0.250615 0.184543
2587 722 0.57782 0.250831 0.189105
2928 722 0.711915 0.252671 0.191887
2930 722 0.710954 0.257482 0.199084
2920 719 0.711611 0.252421 0.197307
2929 722 0.70521 0.249814 0.198726
2926 720 0.726723 0.251745 0.198574
2927 720 0.720878 0.243984 0.198771
2833 722 0.840665 0.239624 0.196348
2823 719 0.843435 0.235513 0.199308
2825 716 0.8585 0.241452 0.199838
2840 722 0.880259 0.256487 0.194731
2828 716 0.872878 0.245711 0.199699
2839 722 0.888337 0.249864 0.193812
2830 719 0.88519 0.253256 0.197347
2838 722 0.89087 0.256452 0.198942
1192 2 0.388185 0.391355 0.173161
1191 1 0.385849 0.397788 0.17378
1194 3 0.378109 0.400971 0.171454
1200 5 0.379913 0.408189 0.173898
1199 5 0.381687 0.40809 0.172137
1196 4 0.381136 0.407397 0.173434
1198 5 0.387534 0.406518 0.178882
1195 4 0.38794 0.406922 0.177651
1193 3 0.393183 0.402349 0.174951
1197 5 0.388946 0.407917 0.177909
493 3 0.426097 0.405994 0.19894
494 3 0.441248 0.401022 0.197873
491 1 0.432051 0.400329 0.199908
495 4 0.432301 0.408347 0.194044
498 5 0.432059 0.40714 0.192772
496 4 0.44052 0.407659 0.195991
499 5 0.440685 0.408488 0.19733
497 5 0.431764 0.409731 0.193375
500 5 0.441836 0.407935 0.195057
6103 90 0.752357 0.497907 0.167702
6127 83 0.73788 0.497792 0.17144
6133 90 0.743762 0.490192 0.178756
6083 81 0.771497 0.498143 0.169851
6090 86 0.765752 0.495573 0.172143
6091 86 0.777849 0.495329 0.171794
6093 86 0.77327 0.498344 0.192221
6095 86 0.784779 0.499936 0.189657
6132 410 0.808285 0.497904 0.197198
6138 86 0.801864 0.495517 0.19861
6140 86 0.807643 0.499136 0.192035
5542 85 0.661437 0.0275015 0.220729
5543 81 0.653007 0.0258585 0.225234
5550 86 0.651867 0.0293109 0.229245
5551 86 0.653278 0.0208466 0.227378
5552 86 0.64688 0.0257626 0.222232
5661 81 0.66285 0.0218488 0.215335
5662 83 0.655172 0.020414 0.209963
5663 81 0.656351 0.0235134 0.203066
5664 407 0.653475 0.0128322 0.20895
5665 408 0.659383 0.00869325 0.207166
5666 409 0.644527 0.011048 0.21079
5667 410 0.641314 0.00423793 0.210971
5668 90 0.664432 0.017385 0.217936
5671 86 0.661871 0.0213918 0.200297
5672 86 0.658343 0.0289649 0.203245
5673 86 0.635336 0.00273707 0.207933
5674 86 0.640097 0.00187594 0.215786
5675 86 0.646432 0.00139383 0.208743
5541 82 0.670967 0.0289433 0.22481
5548 90 0.676867 0.0295907 0.221407
5556 82 0.677811 0.0173686 0.226721
5557 85 0.676483 0.0244067 0.230201
5558 81 0.686176 0.0276239 0.231899
5563 90 0.678045 0.0181062 0.221071
5564 90 0.67038 0.0153505 0.227339
5566 86 0.690596 0.028054 0.227296
5571 82 0.695018 0.0133676 0.226655
5572 85 0.68462 0.0115296 0.228984
5574 407 0.682209 0.00466525 0.226394
5576 409 0.676039 0.00466839 0.221764
5578 90 0.699466 0.00919798 0.2288
5579 90 0.697255 0.0183214 0.22839
5586 82 0.701628 0.0062704 0.216156
5587 85 0.699558 0.0136308 0.219209
5588 81 0.692798 0.0168741 0.214496
5589 407 0.708851 0.0175721 0.21932