ITEM: TIMESTEP
93
ITEM: NUMBER OF ATOMS
7790
ITEM: BOX BOUNDS pp pp pp
-7.1162899887960819e+01 7.1162899887960819e+01
-1.0000000000000000e+02 1.0000000000000000e+02
-1.0000000000000000e+02 1.0000000000000000e+02
ITEM: ATOMS id type xs ys zs
942 2 0.266695 0.0114763 0.02326
944 3 0.267877 0.0137608 0.0112463
941 1 0.266541 0.00943965 0.0167109
950 5 0.26758 0.0104243 0.0038317
949 5 0.263108 0.00977878 0.00527175
946 4 0.266336 0.00939683 0.00575956
943 3 0.265754 0.0026079 0.0153027
945 4 0.27003 0.00236158 0.00892963
948 5 0.273256 0.0020055 0.00948462
947 5 0.269444 0.000241093 0.00802673
3917 720 0.664176 0.016388 0.027801
3908 716 0.657408 0.00749336 0.0295491
3909 717 0.663955 0.0124865 0.0316465
3907 714 0.66354 0.00702329 0.0191442
3906 715 0.658325 0.00496037 0.02357
3916 720 0.670938 0.0101783 0.0315997
1187 5 0.889935 0.0537381 0.00865465
1183 3 0.897659 0.0478349 0.00927036
1185 4 0.889344 0.0516698 0.00968052
1188 5 0.889435 0.0524336 0.0119334
1181 1 0.894305 0.0414462 0.0108563
1189 5 0.881584 0.0453989 0.00489411
1190 5 0.878342 0.0464283 0.00739467
1186 4 0.881615 0.0462179 0.00713518
1184 3 0.884538 0.0405019 0.0107709
1182 2 0.900457 0.0363882 0.0123648
430 5 0.918191 0.0464287 0.00307088
429 5 0.920036 0.0432018 0.00373991
426 4 0.919548 0.0446492 0.0018819
424 3 0.928856 0.046529 0.000198407
2841 719 0.156909 0.145938 0.0206263
2850 722 0.15477 0.14122 0.0229271
2851 722 0.150337 0.148844 0.0204508
2853 720 0.163613 0.149712 0.029878
2842 717 0.165133 0.14936 0.0245193
2849 722 0.158911 0.14456 0.0154934
2852 720 0.171554 0.146349 0.0241681
2845 714 0.180343 0.156423 0.0283818
2844 715 0.174717 0.15884 0.0244186
2843 716 0.167255 0.155928 0.0221435
2846 716 0.175007 0.164837 0.0220085
2855 720 0.188648 0.167013 0.0245713
2854 720 0.180099 0.169669 0.0302242
2847 717 0.181677 0.169329 0.0248714
2848 719 0.181784 0.176372 0.0215396
2857 722 0.184124 0.176267 0.0162992
2856 722 0.186855 0.179632 0.0240322
2858 722 0.175056 0.179086 0.0218055
686 4 0.323785 0.294532 0.00148358
689 5 0.325081 0.296488 0.00249828
687 5 0.317123 0.288651 0.00755501
685 4 0.319447 0.288419 0.00590783
688 5 0.318244 0.286448 0.00489808
683 3 0.327619 0.286004 0.00908073
682 2 0.343447 0.284971 0.00522516
681 1 0.33454 0.287401 0.00431447
6040 408 0.844034 0.291018 0.0235944
6039 407 0.846987 0.295823 0.0271376
6077 86 0.832035 0.299862 0.0254145
6070 408 0.832968 0.282524 0.0309358
6019 86 0.864753 0.294606 0.025326
6012 410 0.860691 0.298828 0.0247586
6020 86 0.85804 0.299013 0.020637
6010 408 0.858433 0.294928 0.00823945
6011 409 0.863631 0.295076 0.0191811
6009 407 0.864662 0.297816 0.0114149
533 3 0.808161 0.311213 0.00243205
535 4 0.811468 0.31768 0.00081084
536 4 0.822755 0.316514 0.00155693
539 5 0.824178 0.316059 0.00365503
540 5 0.825082 0.317971 0.000743677
537 5 0.809697 0.319234 0.00204675
6089 90 0.820749 0.304928 0.0326034
6088 90 0.820404 0.305434 0.0327866
6076 86 0.831834 0.314523 0.0331525
6075 86 0.832048 0.314938 0.0325705
6068 81 0.836976 0.307388 0.0308133
6059 90 0.832315 0.310761 0.0209647
6058 90 0.831978 0.310732 0.0211231
6051 82 0.841883 0.307705 0.0279209
6047 86 0.845444 0.305415 0.016281
6046 86 0.843772 0.320119 0.0218301
6045 86 0.84349 0.320366 0.020899
6038 81 0.848634 0.313823 0.0205037
6029 90 0.84886 0.314996 0.0100239
6028 90 0.848108 0.315304 0.0100691
6021 82 0.856083 0.313737 0.0167781
6016 86 0.851684 0.324038 0.00157795
2964 722 0.856713 0.328205 0.0147715
6037 85 0.855717 0.307828 0.025254
6015 86 0.856784 0.327746 0.00110072
2965 722 0.858453 0.327416 0.0146036
6004 86 0.858675 0.325073 0.0278693
6003 86 0.858061 0.318238 0.0287847
2966 722 0.860453 0.328131 0.0142151
2956 719 0.858731 0.329602 0.010314
6032 86 0.886969 0.318634 0.0312848
6031 86 0.885683 0.303996 0.0253184
6030 86 0.886939 0.304038 0.0250738
6023 81 0.882807 0.311482 0.0257195
6022 85 0.870003 0.315614 0.0257722
6014 90 0.897868 0.313845 0.0245032
6013 90 0.897895 0.313425 0.0245222
6008 81 0.859772 0.31997 0.00312026
6007 85 0.871294 0.312901 0.00987834
6006 82 0.885549 0.314482 0.0210465
6001 86 0.899498 0.310601 0.0127868
6000 86 0.900581 0.310719 0.0125427
5997 410 0.864161 0.32102 0.0301808
5996 409 0.866307 0.326245 0.0273554
5995 408 0.878412 0.330333 0.0297941
5994 407 0.874859 0.325995 0.0255977
5993 81 0.896344 0.318192 0.0136299
5992 85 0.883551 0.322206 0.0116955
5990 86 0.861501 0.307256 0.00770236
5989 86 0.877864 0.303152 0.0144117
5988 86 0.870529 0.306998 0.0185649
5943 86 0.883537 0.330094 0.00501847
5945 86 0.898719 0.332527 0.00887775
5982 410 0.869958 0.305887 0.0131618
5981 409 0.878127 0.30332 0.00984075
5979 407 0.875663 0.305647 0.00366511
5952 410 0.884146 0.31197 0.000748633
5975 86 0.885781 0.327947 0.0189875
5973 86 0.873057 0.320145 0.0165605
5958 86 0.885535 0.313364 0.00630071
5959 86 0.891107 0.308843 0.00166503
5967 410 0.877831 0.327499 0.0170132
6002 86 0.900758 0.324704 0.0201216
5976 82 0.898406 0.3212 0.00898687
6018 86 0.860632 0.30033 0.0295241
5991 82 0.869296 0.320506 0.00163473
5962 85 0.895772 0.329664 0.000412665
5977 85 0.883685 0.319987 4.26101e-05
5984 90 0.911009 0.320943 0.0121771
5983 90 0.9111 0.320438 0.0122384
5972 86 0.914271 0.332397 0.00823101
5971 86 0.911979 0.317366 0.000562528
5953 90 0.924223 0.326319 0.00148002
5963 81 0.909082 0.325374 0.00147432
5954 90 0.924256 0.326641 0.00141224
5970 86 0.912781 0.317457 0.000236326
2963 720 0.849687 0.336638 0.0151677
2955 717 0.854614 0.336319 0.010702
2952 715 0.843587 0.338365 0.00224727
2953 714 0.839897 0.342216 0.00597236
2954 716 0.85138 0.339211 0.00438127
2962 720 0.862017 0.338057 0.0105632
5937 410 0.889779 0.333831 0.00537178
5974 86 0.874656 0.334462 0.0182913
5966 409 0.879026 0.334313 0.0158345
5965 408 0.892319 0.339658 0.0181723
5964 407 0.887798 0.336891 0.0137826
5934 407 0.900045 0.340821 0.00242364
5944 86 0.884819 0.33845 0.00309774
5935 408 0.903269 0.344774 0.00669798
5936 409 0.890647 0.340293 0.00309111
581 1 0.602316 0.386131 0.0227737
584 3 0.597119 0.388929 0.0175261
590 5 0.601915 0.388754 0.0102064
586 4 0.602985 0.387489 0.0120143
589 5 0.601795 0.385387 0.0112837
583 3 0.6118 0.38463 0.0215
588 5 0.614458 0.390305 0.0162765
585 4 0.613307 0.388213 0.0154741
587 5 0.616142 0.38745 0.0145312
582 2 0.59804 0.384877 0.0287773
2747 720 0.597245 0.397874 0.00239227
2737 714 0.614337 0.399901 0.00273202
2736 715 0.611397 0.404569 0.00611166
2738 716 0.602977 0.40666 0.00603014
2749 722 0.585106 0.404683 0.0109716
2745 720 0.607082 0.41011 0.017991
2744 720 0.609589 0.417102 0.0131304
2734 717 0.612852 0.412615 0.0153147
2741 722 0.618017 0.418289 0.0239815
2735 716 0.616585 0.408213 0.0101498
2740 719 0.586078 0.405182 0.00550117
2750 722 0.584013 0.410335 0.00420064
2739 717 0.595879 0.40328 0.0024452
2748 722 0.580566 0.401931 0.0035748
3566 716 0.642272 0.411584 0.00222659
3567 717 0.651877 0.409834 0.00346465
2742 722 0.623246 0.410418 0.0233813
2733 719 0.6207 0.414667 0.0203726
2743 722 0.626831 0.41724 0.0181913
3578 722 0.651318 0.407638 0.0144773
3576 722 0.662577 0.409219 0.0113784
3577 722 0.655014 0.415904 0.012616
3568 719 0.655206 0.410705 0.0108479
3575 720 0.656324 0.41286 0.000163181
3574 720 0.652838 0.404658 0.00181583
108 5 0.418984 0.452511 0.0234743
105 4 0.421921 0.452786 0.0245885
107 5 0.423807 0.452936 0.0226675
103 3 0.421049 0.459291 0.0272899
110 5 0.424478 0.446226 0.03149
106 4 0.424584 0.448569 0.0313022
109 5 0.427476 0.448894 0.0324533
1732 2 0.736285 0.463162 0.0210722
4506 722 0.705795 0.493701 0.0215487
4497 719 0.712678 0.491662 0.0228665
4505 722 0.711196 0.487352 0.02614
1731 1 0.736584 0.46978 0.0228536
1738 5 0.742549 0.47987 0.0195031
1735 4 0.739544 0.480135 0.0205316
1740 5 0.739712 0.480148 0.0302215
4498 717 0.719007 0.497177 0.0261152
4507 722 0.71537 0.489706 0.0180931
1734 3 0.739806 0.472106 0.0290854
1736 4 0.737999 0.479061 0.0285393
1739 5 0.734994 0.479256 0.0295522
4499 716 0.72819 0.494802 0.0277652
1737 5 0.738595 0.482024 0.0193209
1733 3 0.734552 0.474588 0.0179865
4502 716 0.741968 0.49617 0.0302496
4504 719 0.758937 0.494248 0.0328477
4514 722 0.761877 0.494814 0.0277964
4508 720 0.715669 0.499276 0.0305872
4500 715 0.733569 0.498398 0.0315859
3910 719 0.66175 0.0156011 0.0386526
3919 722 0.655358 0.0186897 0.0387194
3920 722 0.661253 0.0119704 0.0427789
3918 722 0.667331 0.0190298 0.0401913
2623 722 0.966605 0.118661 0.0640478
2614 719 0.974218 0.119422 0.0642351
2622 722 0.976843 0.11785 0.0593059
2624 722 0.975079 0.124877 0.064524
466 4 0.0573301 0.166224 0.0624952
470 5 0.0562053 0.16466 0.0609492
2563 722 0.460812 0.162367 0.0536834
526 4 0.62527 0.137805 0.0626215
524 3 0.628099 0.144575 0.06307
529 5 0.621959 0.138005 0.0623659
530 5 0.625934 0.137063 0.0604415
462 2 0.0684423 0.181293 0.0634455
461 1 0.0666557 0.174595 0.064158
469 5 0.0543979 0.167313 0.0629255
464 3 0.0623161 0.171162 0.0588924
2561 722 0.459236 0.169343 0.0590798
2553 719 0.457938 0.167459 0.0539828
2562 722 0.450311 0.166841 0.0537567
2565 720 0.460705 0.169445 0.0433205
2554 717 0.461466 0.172001 0.0481468
2564 720 0.457258 0.176563 0.0477017
2873 720 0.448274 0.19876 0.0531383
2866 719 0.46174 0.198472 0.0476786
2875 722 0.45974 0.194342 0.04433
2874 722 0.465872 0.196089 0.0516122
2557 714 0.471568 0.177525 0.0381573
2555 716 0.471003 0.174059 0.0488264
2556 715 0.474733 0.177189 0.0438449
2566 720 0.489941 0.180144 0.0373858
2567 720 0.483055 0.187235 0.0385717
2558 716 0.482176 0.180144 0.0459818
2559 717 0.487671 0.183722 0.0412152
2569 722 0.494348 0.19124 0.0481242
2560 719 0.496238 0.187368 0.0444425
2568 722 0.500273 0.189995 0.0406102
2570 722 0.501336 0.183986 0.0468333
2870 720 0.425117 0.215451 0.0443351
2868 722 0.42593 0.228105 0.0415568
2867 722 0.429622 0.223322 0.0347442
2861 716 0.439242 0.213987 0.0435473
2862 715 0.44055 0.20915 0.0477607
2863 714 0.435774 0.207885 0.0527016
2864 716 0.448165 0.206138 0.0459385
2865 717 0.45316 0.202277 0.0507651
2872 720 0.455352 0.205707 0.0547529
2876 722 0.466865 0.201607 0.0449835
2859 719 0.431354 0.224585 0.0399566
2871 720 0.431871 0.22 0.0499822
2860 717 0.431572 0.21841 0.0447404
2869 722 0.437805 0.227623 0.0398978
6167 86 0.794884 0.282789 0.058407
6158 81 0.797768 0.291363 0.0656966
6149 90 0.791106 0.294069 0.0561926
6148 90 0.790399 0.293971 0.0565599
6141 82 0.800531 0.291356 0.0625256
6130 408 0.806724 0.272624 0.054225
6128 81 0.807987 0.295327 0.0537977
6119 90 0.806173 0.299283 0.0437188
6118 90 0.806058 0.298944 0.0436003
6137 86 0.803644 0.288578 0.0491647
6140 86 0.800854 0.274826 0.0662274
6131 409 0.808577 0.27198 0.0657467
6050 86 0.836084 0.294807 0.0357394
6129 407 0.809971 0.277328 0.0579393
6110 86 0.816255 0.283142 0.0666144
6127 85 0.815468 0.289522 0.0589837
6121 86 0.848957 0.286084 0.0634466
6120 86 0.848131 0.2855 0.0614982
6113 81 0.844694 0.292149 0.0628919
6112 85 0.830441 0.294616 0.0598232
6111 82 0.815081 0.295759 0.0503055
6107 86 0.819718 0.294719 0.0386759
6102 410 0.821005 0.279421 0.0633314
6101 409 0.825254 0.281893 0.0577015
6100 408 0.817382 0.281101 0.0485345
6099 407 0.821791 0.285654 0.0518696
6097 85 0.830325 0.295436 0.0480211
6096 82 0.846215 0.29585 0.0565994
6093 86 0.819415 0.299697 0.0616386
6080 86 0.830102 0.285656 0.042745
6079 86 0.838578 0.281637 0.0487355
6078 86 0.837776 0.286948 0.0513405
6072 410 0.835159 0.285848 0.0466884
6071 409 0.838739 0.281917 0.0417528
6069 407 0.839533 0.284809 0.0342757
6049 86 0.851285 0.291393 0.0374306
6042 410 0.843525 0.293068 0.0380527
6083 81 0.856426 0.29906 0.0483302
6041 409 0.851082 0.291772 0.0334858
6048 86 0.84366 0.294273 0.0425154
6109 86 0.825159 0.273754 0.0629025
6060 86 0.874552 0.298118 0.0360379
6104 90 0.858958 0.295071 0.0591939
6103 90 0.859011 0.294713 0.0591758
6091 86 0.859882 0.291222 0.0477079
6090 86 0.860992 0.291321 0.0474094
6061 86 0.873745 0.297986 0.0364741
6136 86 0.804026 0.302016 0.0560299
6135 86 0.804385 0.302471 0.0555079
6026 409 0.850867 0.321819 0.0392554
6095 86 0.834553 0.302479 0.0632981
6063 86 0.832007 0.304284 0.0520746
6106 86 0.816896 0.308856 0.0455053
6105 86 0.816776 0.309569 0.0442563
6098 81 0.822245 0.302674 0.0432082
6094 86 0.819964 0.304802 0.0615983
6087 410 0.825875 0.30209 0.0632492
6086 409 0.82439 0.30879 0.0622458
6084 407 0.83289 0.312114 0.0599552
6082 85 0.843396 0.303977 0.0474129
6081 82 0.828426 0.30362 0.0397258
6067 85 0.846073 0.300649 0.0350934
6065 86 0.845107 0.308136 0.0556082
6064 86 0.832973 0.312297 0.0487837
6057 410 0.837395 0.308523 0.052086
6056 409 0.838154 0.315334 0.0499388
6055 408 0.851223 0.320297 0.0536832
6054 407 0.847259 0.316832 0.0493536
6034 86 0.845702 0.319304 0.0384038
6033 86 0.845462 0.310714 0.0401712
6027 410 0.850944 0.315006 0.0407153
6052 85 0.857037 0.310116 0.0361166
6085 408 0.837741 0.315035 0.0641977
6005 86 0.872121 0.320326 0.034205
6092 86 0.860433 0.30607 0.0548544
6074 90 0.871507 0.301233 0.0481522
6073 90 0.871533 0.300852 0.0481603
6066 82 0.858934 0.302107 0.0445174
6062 86 0.874632 0.312406 0.0443824
6053 81 0.870159 0.305781 0.0374151
6044 90 0.885049 0.308151 0.0368877
6043 90 0.885089 0.307725 0.0369601
6036 82 0.871939 0.308868 0.0336634
6035 86 0.85922 0.314067 0.0443326
6025 408 0.863499 0.326445 0.0430385
6024 407 0.859843 0.32306 0.0386693
101 1 0.41711 0.457845 0.0335479
104 3 0.418008 0.451254 0.0358895
102 2 0.412529 0.462709 0.0371088
4503 717 0.749756 0.4984 0.03416
4513 722 0.758343 0.488841 0.0337765
4511 720 0.74774 0.498146 0.0394423
4512 722 0.764595 0.495871 0.0361655
44 3 0.239365 0.0617085 0.0768238
50 5 0.245013 0.0578629 0.0827176
46 4 0.24373 0.0600133 0.0829525
49 5 0.241105 0.0593985 0.0842998
2465 716 0.95111 0.0626654 0.0915579
2466 715 0.951803 0.066587 0.0966957
2473 722 0.952448 0.0505503 0.0843395
2472 722 0.964148 0.0515226 0.0823187
2463 719 0.957799 0.0544056 0.083412
2471 722 0.955883 0.0568785 0.0786927
2474 720 0.964574 0.0632595 0.0880685
2464 717 0.95945 0.0593695 0.0893519
2475 720 0.962454 0.0567804 0.0936879
42 2 0.232136 0.072087 0.0734352
3337 722 0.234568 0.0908273 0.0779244
45 4 0.249766 0.0667906 0.0843789
47 5 0.25115 0.0673567 0.0864404
48 5 0.252328 0.0674479 0.0829852
41 1 0.238115 0.0686226 0.0775642
43 3 0.242899 0.0717075 0.0828759
3336 722 0.238665 0.0938188 0.0702776
3327 719 0.240587 0.0933195 0.0755549
3328 717 0.250064 0.0893811 0.0763267
3338 720 0.255496 0.0914255 0.0730368
3339 720 0.249213 0.0841642 0.0747714
3335 722 0.240613 0.0984903 0.0774285
3329 716 0.253925 0.0894654 0.0829145
3330 715 0.261431 0.085912 0.0841276
3331 714 0.264393 0.0811645 0.0808676
3332 716 0.264996 0.0881166 0.0896551
3341 720 0.275921 0.0817105 0.0918456
3333 717 0.269264 0.0834062 0.0940512
3340 720 0.264811 0.0789419 0.0941335
2468 716 0.943389 0.0684006 0.0985423
2467 714 0.959176 0.0681171 0.0994906
2619 720 0.0102752 0.105246 0.073076
2616 722 0.024126 0.109679 0.0792128
2618 720 0.00632469 0.106594 0.0811342
2617 722 0.0210088 0.116491 0.0744574
2615 722 0.0178817 0.116007 0.0830836
2607 719 0.0183101 0.113129 0.0784015
2608 717 0.00903628 0.109247 0.0767266
2609 716 0.00195398 0.11369 0.0742357
527 5 0.629244 0.132722 0.0703755
2620 720 0.977256 0.110023 0.0692769
2610 715 0.993617 0.111475 0.0731274
2612 716 0.988363 0.116494 0.0712062
2611 714 0.991093 0.105672 0.0739116
2613 717 0.978555 0.115362 0.0701544
2621 720 0.975122 0.116564 0.0749021
468 5 0.0677969 0.163607 0.0680068
467 5 0.0641373 0.16343 0.0704152
465 4 0.0648333 0.164617 0.0684432
525 4 0.62999 0.1348 0.0694128
528 5 0.633316 0.134666 0.0696992
523 3 0.627513 0.139855 0.0740518
522 2 0.629576 0.151796 0.0727354
521 1 0.628234 0.145571 0.070013
463 3 0.0674166 0.171209 0.0702928
784 3 0.0667723 0.185597 0.0928993
781 1 0.0649102 0.17955 0.096191
782 2 0.0624168 0.173858 0.092747
789 5 0.0744838 0.188752 0.0976713
790 5 0.0714447 0.191546 0.0973221
786 4 0.0712706 0.189303 0.0980219
6238 90 0.748483 0.264761 0.0984171
6220 408 0.764282 0.257447 0.0973708
6200 86 0.782999 0.252782 0.0968592
6190 408 0.776108 0.260364 0.0861683
6189 407 0.780117 0.265821 0.0892452
6169 86 0.798462 0.260402 0.0866904
6168 86 0.795849 0.265326 0.090433
6162 410 0.800979 0.265197 0.0877227
6161 409 0.801443 0.265872 0.0814902
6198 86 0.784629 0.258541 0.0972683
6191 409 0.781837 0.258882 0.0937014
11 1 0.228249 0.298683 0.0935999
14 3 0.237684 0.297498 0.0952503
12 2 0.224107 0.295753 0.0881138
6239 90 0.747142 0.267784 0.0970604
6179 90 0.784754 0.285504 0.0684857
6166 86 0.791083 0.296917 0.0692152
6165 86 0.791786 0.29819 0.0681754
6257 86 0.762762 0.269426 0.0929131
6227 86 0.773102 0.268928 0.0795807
6226 86 0.76553 0.283345 0.0915051
6225 86 0.766145 0.284356 0.0906479
6218 81 0.772741 0.277253 0.0890574
6217 85 0.776473 0.271074 0.096681
6209 90 0.766513 0.279188 0.0793486
6208 90 0.762253 0.277019 0.0814542
6203 81 0.805416 0.276186 0.0934432
6202 85 0.790632 0.276982 0.0956892
6201 82 0.774828 0.276299 0.0867801
6197 86 0.792811 0.266835 0.0726444
6196 86 0.778267 0.287687 0.0804307
6195 86 0.778356 0.288383 0.0797195
6188 81 0.784875 0.282003 0.0788453
6187 85 0.789633 0.278225 0.0885935
6185 86 0.782561 0.28544 0.0948224
6184 86 0.7774 0.291063 0.0996176
6183 86 0.782203 0.28751 0.0949293
6178 90 0.784088 0.285662 0.0686056
6177 410 0.779956 0.286116 0.0991568
6176 409 0.789026 0.287681 0.0976676
6174 407 0.796998 0.285585 0.099012
6172 85 0.806259 0.282094 0.0857161
6171 82 0.791474 0.283365 0.0761237
6170 86 0.795639 0.266749 0.0907022
6160 408 0.779923 0.272068 0.0666805
6159 407 0.78641 0.274783 0.070611
6157 85 0.801014 0.283859 0.0699589
6154 86 0.793734 0.290756 0.0861503
6153 86 0.789664 0.272792 0.0817773
6147 410 0.794337 0.284136 0.0848749
6146 409 0.794572 0.293451 0.0840681
6138 86 0.805236 0.276263 0.0764566
6132 410 0.804805 0.275237 0.0711142
6123 86 0.806573 0.290399 0.0763345
6186 82 0.805551 0.278293 0.0951917
6155 86 0.797175 0.28903 0.0867447
6144 407 0.803463 0.299247 0.0828831
6122 86 0.849897 0.299417 0.067593
6212 86 0.809971 0.288368 0.0942989
6211 86 0.811654 0.268608 0.0948811
6139 86 0.810758 0.271987 0.0726628
6117 410 0.80973 0.296049 0.0761345
6210 86 0.811923 0.268749 0.093864
6182 86 0.823746 0.282808 0.0914725
6181 86 0.825424 0.272697 0.0867167
6180 86 0.823183 0.272213 0.0843116
6173 81 0.819894 0.277773 0.0873813
6164 90 0.828153 0.284794 0.0802945
6163 90 0.829472 0.283447 0.0804128
6156 82 0.818659 0.282222 0.0790851
6151 86 0.834118 0.282675 0.0688245
6150 86 0.834516 0.282772 0.0688429
6143 81 0.829003 0.291371 0.0691216
6142 85 0.814585 0.293581 0.0698466
6134 90 0.840947 0.29271 0.0750967
6133 90 0.840441 0.293505 0.0753033
6126 82 0.830139 0.292904 0.0695045
6125 86 0.814522 0.292829 0.080076
6108 86 0.817029 0.282796 0.0670088
6115 408 0.8266 0.299154 0.0795716
13 3 0.223149 0.302741 0.098025
6124 86 0.80704 0.301839 0.0724839
6145 408 0.808001 0.301437 0.0880117
6116 409 0.813023 0.302543 0.0735213
6152 86 0.835346 0.305331 0.0737504
6114 407 0.822048 0.300661 0.0729254
2316 722 0.803415 0.394288 0.0842588
2314 720 0.80704 0.388203 0.0947403
2315 720 0.811109 0.396433 0.0951687
2307 717 0.81224 0.391631 0.0926496
2306 716 0.821029 0.389084 0.0949182
2308 719 0.810566 0.392401 0.0849916
2318 722 0.81081 0.38772 0.0821388
2317 722 0.815165 0.396015 0.0824652
4188 722 0.0931916 0.0633734 0.129593
4177 714 0.123426 0.0527126 0.131221
4187 720 0.107806 0.0571786 0.12799
4186 720 0.111972 0.0649579 0.130468
4179 717 0.107784 0.0606953 0.132206
3343 722 0.276437 0.089859 0.101431
3342 722 0.272628 0.082138 0.104608
3334 719 0.27069 0.0862292 0.101269
3344 722 0.264615 0.088613 0.10375
438 5 0.284038 0.099348 0.113254
432 2 0.275773 0.0997089 0.129363
431 1 0.281037 0.09718 0.124223
434 3 0.279816 0.0906672 0.121719
440 5 0.28593 0.0886881 0.1152
437 5 0.289011 0.0993171 0.112946
435 4 0.286702 0.0983128 0.114285
439 5 0.289239 0.0894832 0.117664
436 4 0.286648 0.0904786 0.116579
2978 720 0.761131 0.0792685 0.123952
2971 714 0.749964 0.0849271 0.116587
2970 715 0.755687 0.0893583 0.117727
2972 716 0.753668 0.0956479 0.11689
2969 716 0.764211 0.0883105 0.119908
2968 717 0.767047 0.0817297 0.121473
2979 720 0.768048 0.0792075 0.116667
2967 719 0.776078 0.081464 0.125909
2976 722 0.777287 0.0763397 0.127593
2977 722 0.782495 0.0829267 0.123218
2975 722 0.77586 0.0843944 0.130579
2480 722 0.930429 0.0681029 0.109787
2476 720 0.947876 0.0708499 0.10795
2470 719 0.932743 0.0728604 0.107572
2479 722 0.92709 0.0746659 0.104286
2478 722 0.932802 0.076365 0.111763
2469 717 0.942695 0.0725952 0.104287
2477 720 0.945111 0.0775658 0.102763
433 3 0.286913 0.10147 0.120599
2973 717 0.760345 0.100951 0.118014
2984 722 0.750494 0.10949 0.119954
2974 719 0.755964 0.107936 0.116388
2982 722 0.761308 0.111846 0.116609
2983 722 0.752893 0.108456 0.111353
2980 720 0.762736 0.100695 0.123235
2981 720 0.766706 0.100006 0.115039
572 2 0.215683 0.156052 0.128309
788 5 0.0622527 0.187165 0.104862
785 4 0.0654919 0.186663 0.104541
787 5 0.0664474 0.186954 0.106783
783 3 0.0651989 0.1797 0.103206
6288 86 0.752588 0.262705 0.114476
6286 86 0.723349 0.246027 0.126811
6281 409 0.752462 0.2594 0.117477
6280 408 0.733361 0.250684 0.117128
6279 407 0.740297 0.253703 0.120584
6278 81 0.727632 0.24857 0.130326
6277 83 0.737591 0.253303 0.129181
6269 90 0.73496 0.262103 0.114135
6268 90 0.733369 0.26396 0.116696
6261 82 0.73916 0.260877 0.121201
6260 86 0.748873 0.243421 0.126526
6259 86 0.753645 0.243474 0.128422
6252 410 0.7524 0.248146 0.125513
6251 409 0.753565 0.247087 0.117535
6250 408 0.748588 0.250872 0.106023
6249 407 0.755308 0.252476 0.10941
6262 85 0.761316 0.263326 0.123217
6287 86 0.721517 0.251032 0.132216
6258 86 0.753714 0.252493 0.12868
6219 407 0.769724 0.261307 0.100879
6242 86 0.800101 0.261089 0.102939
6271 86 0.784992 0.255404 0.115556
6270 86 0.784813 0.255747 0.114613
6263 81 0.778745 0.26234 0.115822
6254 90 0.787086 0.265107 0.124603
6253 90 0.786854 0.263861 0.124934
6247 85 0.763416 0.263797 0.108958
6246 82 0.777006 0.263864 0.119814
6241 86 0.800233 0.260601 0.109957
6240 86 0.800664 0.260033 0.104535
6233 81 0.793213 0.262411 0.10675
6230 86 0.768853 0.251908 0.120558
6229 86 0.769096 0.25288 0.123976
6228 86 0.771402 0.261534 0.129425
6222 410 0.768486 0.257217 0.1209
6221 409 0.769818 0.255602 0.109636
6199 86 0.786289 0.251509 0.101107
6192 410 0.782053 0.256163 0.100596
19 5 0.237757 0.298089 0.103151
6248 81 0.760956 0.272425 0.100331
6231 82 0.756356 0.2668 0.102202
6282 410 0.754707 0.266854 0.115874
6243 86 0.746892 0.269061 0.127621
6290 86 0.749712 0.269229 0.112841
6289 86 0.750552 0.270966 0.11305
6256 86 0.756436 0.27849 0.100589
6255 86 0.755147 0.278274 0.101567
6245 86 0.746755 0.27391 0.12941
6244 86 0.739515 0.273663 0.12535
6237 410 0.74709 0.271991 0.124339
6236 409 0.757808 0.273686 0.123733
6206 409 0.775436 0.278624 0.105691
6272 86 0.784148 0.270889 0.11447
6235 408 0.771865 0.275023 0.122323
6234 407 0.76725 0.271831 0.117935
6232 85 0.775015 0.267474 0.107338
6224 90 0.797433 0.273491 0.106032
6223 90 0.797198 0.273453 0.10733
6216 82 0.788819 0.270351 0.103265
6215 86 0.770165 0.283342 0.11196
6214 86 0.764685 0.283122 0.112782
6213 86 0.770599 0.277602 0.108769
6207 410 0.767063 0.281369 0.108008
6205 408 0.787508 0.283865 0.111286
6204 407 0.784737 0.280729 0.105932
6175 408 0.800859 0.286056 0.105237
6194 90 0.814799 0.278926 0.101414
6193 90 0.81408 0.279474 0.101688
15 4 0.230507 0.306034 0.10149
17 5 0.229192 0.307123 0.103356
18 5 0.230975 0.307969 0.100148
16 4 0.238259 0.30005 0.101852
20 5 0.241468 0.30034 0.102378
2691 720 0.426129 0.398609 0.131556
2689 722 0.411205 0.392643 0.132907
2688 722 0.404613 0.399768 0.132491
281 1 0.782386 0.396352 0.109508
284 3 0.789377 0.398225 0.114065
288 5 0.794124 0.389212 0.106097
283 3 0.785332 0.393315 0.103527
285 4 0.794582 0.391413 0.105263
287 5 0.796122 0.39082 0.103303
289 5 0.797958 0.399812 0.109313
286 4 0.797574 0.397597 0.110137
290 5 0.800166 0.397596 0.111598
282 2 0.773102 0.397494 0.110874
2304 715 0.822106 0.388838 0.101499
2305 714 0.816323 0.390842 0.105573
2303 716 0.830078 0.386398 0.103201
2311 722 0.841872 0.378909 0.112058
2313 720 0.829084 0.387647 0.113612
2302 717 0.834168 0.388276 0.109511
2312 720 0.835496 0.393679 0.109377
2301 719 0.843376 0.384169 0.110855
2310 722 0.847296 0.385891 0.115217
2309 722 0.848679 0.384355 0.10682
4818 722 0.383329 0.408659 0.132421
2403 720 0.397205 0.422857 0.115827
2690 720 0.418656 0.402967 0.126243
2680 717 0.419866 0.401794 0.13153
2683 714 0.428213 0.413407 0.126181
2682 715 0.42628 0.412864 0.132092
2399 722 0.418726 0.419499 0.114407
2392 717 0.404174 0.422174 0.118047
2402 720 0.403369 0.417845 0.121337
2391 719 0.411601 0.420257 0.11256
2400 722 0.409865 0.415442 0.110243
2394 715 0.404382 0.427641 0.128726
2395 714 0.400935 0.42266 0.131371
2396 716 0.406637 0.433004 0.132318
2393 716 0.406122 0.427973 0.122131
2401 722 0.412332 0.423816 0.108431
2693 720 0.434828 0.424897 0.131737
82 2 0.543708 0.453153 0.132547
4189 722 0.0933583 0.0596553 0.137354
623 3 0.0926404 0.0549349 0.156125
4180 719 0.0975606 0.0629275 0.134058
4184 720 0.128789 0.0428379 0.142506
4176 715 0.119703 0.0539544 0.136599
4178 716 0.112684 0.0578693 0.137746
4175 716 0.121829 0.0515648 0.142418
4174 717 0.130511 0.0481186 0.143243
4185 720 0.135484 0.0493739 0.139228
4181 722 0.13103 0.0466933 0.154286
4173 719 0.134917 0.049303 0.150319
4182 722 0.141985 0.04721 0.150576
4183 722 0.13591 0.0545521 0.151894
624 3 0.105047 0.0627861 0.157984
627 5 0.0999669 0.0493481 0.1589
625 4 0.100235 0.0516564 0.159339
628 5 0.0991939 0.0515905 0.161604
629 5 0.109933 0.056491 0.154698
626 4 0.108961 0.0563727 0.156968
630 5 0.111963 0.0563663 0.15793
621 1 0.0956365 0.0616347 0.156299
2332 720 0.389747 0.0652774 0.145212
622 2 0.0897004 0.0668801 0.154988
4190 722 0.0975504 0.0679224 0.136323
2327 722 0.368629 0.093767 0.152502
2329 722 0.367229 0.088476 0.15938
2328 722 0.357525 0.0909557 0.154747
2319 719 0.36482 0.0893084 0.154232
2330 720 0.362678 0.0840444 0.144577
2320 717 0.365554 0.0830164 0.149554
2331 720 0.361436 0.0788139 0.151501
2322 715 0.376317 0.0751693 0.145358
2321 716 0.374934 0.0807215 0.148597
2323 714 0.37049 0.0710883 0.143442
2333 720 0.385595 0.0676974 0.137374
2325 717 0.389869 0.0694059 0.141607
2335 722 0.401079 0.0751244 0.135824
2326 719 0.400252 0.0710435 0.13949
2334 722 0.403567 0.0667475 0.137086
1405 4 0.390427 0.0757303 0.162034
1408 5 0.390489 0.0734917 0.162834
1410 5 0.402701 0.079673 0.160546
1406 4 0.3999 0.0802966 0.161638
2324 716 0.38539 0.0750053 0.14468
1409 5 0.399827 0.0825583 0.160897
1407 5 0.388332 0.0753801 0.160268
2336 722 0.404935 0.0721583 0.14373
576 4 0.19661 0.152358 0.138238
579 5 0.194655 0.153808 0.136951
580 5 0.194364 0.150685 0.138628
578 5 0.205976 0.153774 0.145032
575 4 0.203964 0.155214 0.143796
571 1 0.209956 0.154857 0.133698
573 3 0.210429 0.158617 0.139619
574 3 0.202955 0.149937 0.133356
577 5 0.203168 0.156659 0.145569
617 5 0.964559 0.164212 0.160076
615 4 0.965241 0.166463 0.160558
614 3 0.974001 0.175816 0.163949
619 5 0.976457 0.168272 0.165622
616 4 0.973274 0.168996 0.165785
612 2 0.974639 0.180671 0.15287
611 1 0.972151 0.175536 0.157065
618 5 0.962083 0.167238 0.160677
613 3 0.968472 0.169512 0.154593
2581 722 0.600555 0.231399 0.16115
2571 719 0.602895 0.228967 0.165798
2580 722 0.604958 0.223945 0.164229
197 5 0.697607 0.246146 0.134812
195 4 0.698772 0.246022 0.137014
198 5 0.700908 0.247847 0.136861
193 3 0.704928 0.240456 0.137376
192 2 0.712054 0.235169 0.147109
191 1 0.705653 0.239468 0.144313
196 4 0.692403 0.244735 0.143662
199 5 0.690335 0.242862 0.143846
194 3 0.699505 0.243138 0.148357
200 5 0.690414 0.246319 0.144652
6264 407 0.756974 0.262608 0.134101
6285 86 0.728145 0.24399 0.133381
6284 90 0.752935 0.248639 0.14521
6276 81 0.749096 0.248629 0.139361
6275 86 0.736419 0.258548 0.146219
6274 86 0.728419 0.260128 0.141335
6273 86 0.734547 0.253204 0.143256
6267 410 0.735898 0.258169 0.140908
6266 409 0.744695 0.262821 0.138158
6283 90 0.75667 0.249454 0.143203
6265 408 0.762172 0.259006 0.137818
4805 716 0.391719 0.397121 0.153738
2679 719 0.411246 0.397875 0.134486
4815 720 0.381082 0.390852 0.150131
4811 722 0.39535 0.384805 0.145146
4803 719 0.394266 0.384933 0.150567
4804 717 0.387525 0.390614 0.15313
4813 722 0.391276 0.380028 0.151698
4812 722 0.40127 0.384753 0.152884
4814 720 0.385036 0.389353 0.158143
2687 722 0.410597 0.397675 0.139987
4819 722 0.372219 0.404822 0.13361
4809 717 0.378789 0.408188 0.143191
4816 720 0.372085 0.407698 0.145806
4810 719 0.376948 0.408737 0.135466
4820 722 0.373573 0.413417 0.133909
4806 715 0.387215 0.402489 0.151726
4808 716 0.384366 0.402604 0.145384
4817 720 0.382027 0.412757 0.145145
2681 716 0.421948 0.407875 0.135054
2404 720 0.397209 0.431949 0.140085
4807 714 0.386429 0.407328 0.155423
402 2 0.39767 0.418434 0.163559
404 3 0.410169 0.413871 0.156815
401 1 0.401713 0.417422 0.157387
407 5 0.402024 0.417006 0.144519
406 4 0.412808 0.415118 0.150112
409 5 0.414939 0.416932 0.150368
410 5 0.415043 0.413491 0.149504
405 4 0.402542 0.416072 0.146625
408 5 0.400392 0.414282 0.14642
403 3 0.398098 0.420205 0.151458
2397 717 0.404757 0.432883 0.139405
2405 720 0.408149 0.428402 0.141414
2685 717 0.436547 0.421397 0.135797
2694 722 0.434209 0.429217 0.143573
2684 716 0.428683 0.41699 0.136736
2692 720 0.442678 0.418639 0.13392
2686 719 0.439061 0.425109 0.142501
2696 722 0.446021 0.427417 0.142343
2695 722 0.439285 0.42209 0.147122
2408 722 0.403137 0.443479 0.142803
2406 722 0.407926 0.438258 0.148875
2407 722 0.414971 0.44115 0.142468
2398 719 0.40789 0.439225 0.143478
83 3 0.553657 0.447984 0.140997
87 5 0.557942 0.449011 0.148471
85 4 0.555964 0.450564 0.147397
89 5 0.561647 0.458646 0.144105
90 5 0.559234 0.459962 0.146918
86 4 0.558923 0.458178 0.145399
88 5 0.553187 0.450088 0.148643
81 1 0.549473 0.453616 0.13804
84 3 0.55164 0.459836 0.140875
7043 81 0.828745 0.024516 0.197398
7050 86 0.828179 0.0297777 0.198371
7052 86 0.828224 0.0224027 0.192574
7051 86 0.821044 0.0254108 0.199284