ITEM: TIMESTEP
42
ITEM: NUMBER OF ATOMS
13309
ITEM: BOX BOUNDS pp pp pp
-1.0000000000000000e+02 1.0000000000000000e+02
-1.0000000000000000e+02 1.0000000000000000e+02
-1.0000000000000000e+02 1.0000000000000000e+02
ITEM: ATOMS id type xs ys zs
6118 85 0.00972761 0.0331649 0.0104299
6107 80 0.0324515 0.0449543 0.00777585
6108 431 0.0288378 0.0406388 0.0129641
6109 408 0.021928 0.0403788 0.0114279
6110 406 0.0176779 0.0378391 0.0159378
6111 407 0.0191817 0.0357657 0.0215288
6112 80 0.0105031 0.0376478 0.0134278
6113 85 0.030494 0.050044 0.00776655
6115 85 0.0318908 0.0429204 0.00275122
6116 410 0.0308764 0.035586 0.0129614
6117 410 0.0295965 0.0427171 0.0179495
6119 85 0.00702425 0.0375554 0.0176246
6120 85 0.00941938 0.0420214 0.0103512
6114 85 0.0377823 0.0452062 0.008883
6234 431 0.157621 0.0665056 0.0167463
6235 408 0.152036 0.0626264 0.018725
6236 406 0.151483 0.0607303 0.0251244
6237 407 0.155383 0.0621812 0.0296537
6238 80 0.145386 0.056362 0.026375
6241 85 0.155846 0.0651529 0.00607568
6242 410 0.162105 0.0634137 0.016891
6244 85 0.146553 0.051185 0.025141
6245 85 0.143912 0.0566085 0.031618
6246 85 0.141184 0.057988 0.0232976
5897 80 0.432673 0.0630642 0.0203081
5903 85 0.428766 0.0609494 0.0234708
5904 85 0.430922 0.06292 0.0151487
5905 85 0.437058 0.0598487 0.0206663
6233 80 0.15649 0.0691984 0.0096702
6239 85 0.152048 0.0723559 0.00947246
6240 85 0.160753 0.0721889 0.00806151
6243 410 0.15837 0.0706544 0.020207
5907 410 0.42985 0.073375 0.0218646
5898 431 0.43429 0.0702508 0.0223913
5899 408 0.436561 0.0703178 0.0290992
5900 406 0.437227 0.0761852 0.0322586
5901 407 0.435904 0.0817086 0.0298983
5906 410 0.438154 0.0723252 0.0191586
449 718 0.274034 0.112191 0.000559331
6151 408 0.0024627 0.164646 0.0253255
6157 85 0.0115554 0.164171 0.0352102
6162 85 0.00066179 0.156958 0.0154239
6149 80 0.0110901 0.168907 0.0325557
6150 431 0.0040117 0.169901 0.0298164
6155 85 0.0147641 0.168952 0.0285264
6158 410 0.000396583 0.169914 0.0338917
6159 410 0.00366474 0.174722 0.0272907
434 713 0.241774 0.184291 0.00074338
435 712 0.241151 0.189479 0.00394648
436 714 0.239126 0.17838 0.00226294
3052 720 0.45535 0.22606 0.0258749
3051 720 0.450295 0.219898 0.0297113
3050 720 0.459093 0.219681 0.0307261
3042 712 0.445257 0.232752 0.0320844
3044 717 0.454762 0.222966 0.0303285
6219 80 0.0260806 0.294665 0.0299149
6220 431 0.0264337 0.295682 0.022336
6221 408 0.0293449 0.289973 0.0193221
6222 406 0.031102 0.290229 0.0128638
6223 407 0.0305098 0.295108 0.0091678
6225 85 0.0310582 0.293929 0.032018
6226 85 0.0238645 0.299022 0.0323243
6227 85 0.0230436 0.290328 0.0312067
6228 410 0.0214377 0.296451 0.0203016
6230 85 0.0298665 0.28035 0.0088284
6224 80 0.0339374 0.283643 0.0103335
6231 85 0.0371702 0.284494 0.00602594
6232 85 0.0368388 0.281167 0.0142346
3035 720 0.10957 0.299858 0.0245182
6229 410 0.0293778 0.300131 0.0211994
3026 713 0.101051 0.310008 0.0342045
3027 712 0.100848 0.315421 0.0312713
3028 714 0.103711 0.304407 0.0317009
3029 717 0.107254 0.304679 0.0255647
3036 720 0.103907 0.305941 0.0214466
3037 720 0.111177 0.308461 0.025809
5860 80 0.129418 0.324627 0.0324711
5866 85 0.127402 0.319891 0.0306834
5867 85 0.125869 0.328586 0.0312652
5868 85 0.134107 0.325626 0.0298661
5871 408 0.464401 0.33332 0.00688911
5872 406 0.468565 0.33168 0.00190773
5874 80 0.473917 0.326729 0.00406715
5880 85 0.471928 0.321661 0.00384067
5881 85 0.478246 0.327046 0.000768602
5882 85 0.475534 0.327744 0.0091787
5843 408 0.0627271 0.364727 0.0318505
5844 406 0.0612113 0.362066 0.0258945
5845 407 0.0621201 0.356215 0.0242397
5853 85 0.0553767 0.3646 0.0171758
5850 410 0.0710419 0.359796 0.0352944
6098 80 0.358786 0.365371 0.0352367
6104 85 0.362848 0.365461 0.0316077
6105 85 0.355865 0.360834 0.0344598
5869 80 0.455832 0.339923 0.0121741
5870 431 0.458989 0.337694 0.00556664
5875 85 0.459458 0.342563 0.015275
5876 85 0.451642 0.343285 0.0112506
5877 85 0.453955 0.335672 0.0150219
5878 410 0.455303 0.335119 0.00249003
5879 410 0.46071 0.342052 0.00277384
5846 80 0.0581777 0.367136 0.0211057
5852 85 0.0621383 0.370076 0.0187914
5854 85 0.054812 0.370513 0.0237569
6106 85 0.355571 0.369694 0.0343712
9416 80 0.494983 0.377454 0.00825477
9422 85 0.494824 0.372863 0.00532534
9423 85 0.491683 0.376885 0.0125566
9424 85 0.493143 0.38156 0.00516891
118 718 0.491449 0.452522 0.0352923
119 718 0.498179 0.461551 0.031758
5902 80 0.439964 0.0754268 0.0393122
5908 85 0.445403 0.0751588 0.0391513
5909 85 0.438524 0.0796962 0.0423817
5910 85 0.438058 0.0708758 0.0416421
6216 85 0.412392 0.12396 0.070434
6156 85 0.0123678 0.172899 0.0360407
6080 431 0.275785 0.199384 0.045869
6083 407 0.268499 0.194148 0.0563486
6088 410 0.273017 0.195894 0.0427314
6089 410 0.27909 0.196456 0.0490705
44 713 0.399444 0.197394 0.0512682
45 712 0.399198 0.191289 0.0517329
9838 85 0.00403998 0.23303 0.0457145
6180 406 0.123518 0.230886 0.069784
6182 80 0.128173 0.228428 0.064297
6188 85 0.125864 0.224252 0.0616664
6189 85 0.129156 0.232413 0.0607091
6190 85 0.132922 0.226757 0.0664009
6084 80 0.263017 0.20467 0.0582926
6090 85 0.258327 0.204868 0.055526
6091 85 0.261991 0.20284 0.0633244
6092 85 0.265051 0.20972 0.0586488
6079 80 0.27992 0.204142 0.0415259
6081 408 0.271232 0.20312 0.0498016
6082 406 0.267898 0.200052 0.0547335
6085 85 0.282757 0.207631 0.0446101
6086 85 0.283455 0.201345 0.0384627
6087 85 0.276751 0.207044 0.0381733
42 715 0.396828 0.208055 0.0481284
43 714 0.396052 0.201158 0.0469639
49 718 0.397867 0.210812 0.0435429
50 718 0.392295 0.210029 0.0504102
41 715 0.402666 0.208221 0.0530204
46 714 0.403138 0.201485 0.0549939
47 718 0.401701 0.211502 0.0572668
48 718 0.407296 0.209752 0.0505673
3041 713 0.449644 0.231879 0.0363215
3043 714 0.454247 0.227037 0.0361118
6181 407 0.119646 0.235573 0.0688548
3049 718 0.446683 0.244445 0.0375256
3038 717 0.439836 0.240513 0.0449867
3039 715 0.446901 0.241836 0.0423168
3040 714 0.450601 0.235811 0.0416724
3045 720 0.436914 0.24511 0.045162
3046 720 0.440009 0.2384 0.0500102
3047 720 0.43718 0.237003 0.0417805
3048 718 0.449547 0.245135 0.0457469
2281 717 0.313864 0.282218 0.0658589
2282 716 0.320178 0.286091 0.0678127
2285 713 0.331307 0.283397 0.0674703
2287 714 0.325712 0.284196 0.0639037
2288 720 0.312263 0.283522 0.0608047
2289 720 0.314743 0.276831 0.0660423
2290 720 0.30978 0.283385 0.0692824
2291 719 0.319453 0.291464 0.0671876
2286 712 0.336949 0.282433 0.0652641
3023 717 0.0896233 0.316684 0.0426262
3024 715 0.096754 0.314492 0.0444016
3025 714 0.0988303 0.30897 0.040449
3030 720 0.0881717 0.321111 0.0454524
3031 720 0.0860346 0.31272 0.0436927
3032 720 0.0892377 0.317919 0.037337
3033 718 0.0969502 0.313037 0.0496457
3034 718 0.100241 0.318653 0.0438231
5858 406 0.130538 0.324262 0.0399841
5859 407 0.126352 0.326366 0.0439696
5855 80 0.145367 0.31851 0.0490832
5856 431 0.137999 0.320483 0.0484259
5857 408 0.136391 0.321427 0.0415933
5861 85 0.148615 0.322409 0.0470875
5862 85 0.146676 0.317745 0.0543179
5863 85 0.146439 0.313885 0.046408
5864 410 0.134812 0.31658 0.0504999
5865 410 0.137051 0.325054 0.0512464
5841 80 0.0655693 0.364188 0.0435358
5842 431 0.0658639 0.360677 0.0367416
5847 85 0.060404 0.365023 0.0450711
5851 410 0.0633982 0.355823 0.0370673
5848 85 0.0679926 0.361154 0.0473595
91 715 0.327443 0.346592 0.0713885
97 718 0.326125 0.349828 0.0672027
98 718 0.324315 0.34212 0.0712717
96 714 0.334231 0.344753 0.0712066
6096 406 0.361647 0.36551 0.0422793
6097 407 0.362561 0.360338 0.0454784
6252 80 0.00988199 0.389608 0.0676182
6258 85 0.015186 0.39033 0.0686334
6259 85 0.00935546 0.387139 0.0627863
6260 85 0.00747193 0.394496 0.0673571
5849 85 0.068091 0.369017 0.0433952
6093 80 0.365818 0.380032 0.0526375
6094 431 0.365976 0.37261 0.0507675
6095 408 0.363035 0.371714 0.0443871
6099 85 0.360694 0.381886 0.0528264
6103 410 0.363293 0.369699 0.0545189
6100 85 0.368071 0.380813 0.0575384
6101 85 0.368576 0.383055 0.0490385
6102 410 0.371116 0.370805 0.0506527
61 715 0.426214 0.414499 0.0571978
62 715 0.423808 0.41255 0.064158
63 714 0.428918 0.408232 0.0663482
66 714 0.432892 0.412285 0.0572603
67 718 0.425881 0.419872 0.0563332
68 718 0.423436 0.411864 0.0533061
69 718 0.41894 0.4101 0.0640756
70 718 0.423568 0.416888 0.0674411
64 713 0.434334 0.408445 0.0624981
65 712 0.439673 0.405639 0.0635805
5941 408 0.0631708 0.452223 0.0531536
5942 406 0.057094 0.450402 0.0552988
5943 407 0.0556013 0.449006 0.0610988
5944 80 0.0519676 0.450113 0.0496896
5950 85 0.052291 0.445302 0.0471511
5951 85 0.0469265 0.450688 0.0516858
5952 85 0.0528684 0.454074 0.0460475
5939 80 0.074528 0.455952 0.0545221
5940 431 0.0685272 0.452488 0.0577761
5945 85 0.073269 0.461048 0.053044
5946 85 0.0787137 0.456194 0.0580036
5947 85 0.076208 0.453276 0.0500817
5948 410 0.0698603 0.447426 0.0592879
5949 410 0.0670264 0.455206 0.0622613
111 715 0.493365 0.455472 0.0394669
112 715 0.496897 0.461774 0.03705
114 713 0.487193 0.464657 0.0423333
116 714 0.487996 0.458107 0.0431729
117 718 0.496602 0.452351 0.0425502
113 714 0.492135 0.466773 0.038421
115 712 0.482731 0.468105 0.044733
8053 80 0.259681 0.00558191 0.0917454
8059 85 0.259495 0.00614384 0.0863245
8060 85 0.258136 0.0103059 0.0939812
8061 85 0.264864 0.00468354 0.0931719
8063 410 0.24995 0.000988175 0.0926824
6206 431 0.429952 0.127236 0.0807898
6207 408 0.423847 0.128517 0.0774365
6208 406 0.418339 0.125192 0.0792956
6209 407 0.417975 0.121109 0.0838799
6210 80 0.412295 0.12691 0.0750136
6214 410 0.431768 0.122291 0.0793986
6215 410 0.429194 0.127251 0.0861911
6217 85 0.407682 0.1258 0.0776981
6218 85 0.412317 0.132202 0.0736857
6205 80 0.435087 0.132581 0.0788736
6212 85 0.439831 0.131658 0.0813933
6213 85 0.436032 0.132609 0.0735064
6191 80 0.0185373 0.142649 0.0831899
6192 431 0.0166349 0.141191 0.0904608
6193 408 0.0141849 0.147099 0.0934986
6194 406 0.0130795 0.14715 0.100103
6195 407 0.0141125 0.142465 0.103954
6196 80 0.0102214 0.153755 0.102556
6197 85 0.0224167 0.146472 0.0829171
6198 85 0.0204351 0.138148 0.0807751
6199 85 0.0142463 0.144393 0.0803181
6200 410 0.0127968 0.13733 0.0906635
6201 410 0.0209837 0.139335 0.0931823
6202 85 0.00480103 0.153722 0.102007
6204 85 0.0122436 0.157923 0.0996741
6211 85 0.433356 0.137548 0.0803105
6177 80 0.122382 0.225228 0.0871749
6178 431 0.119933 0.228942 0.0809447
6179 408 0.124124 0.227375 0.0754544
6183 85 0.127485 0.226681 0.088432
6184 85 0.119205 0.226374 0.0914522
6185 85 0.122297 0.219828 0.0864412
6186 410 0.114813 0.227491 0.0797774
6187 410 0.119953 0.234318 0.0818658
2283 715 0.322657 0.284551 0.0748565
2284 714 0.329582 0.283799 0.073885
2292 718 0.321512 0.288556 0.0783678
2293 718 0.320573 0.279882 0.0767485
6121 80 0.229825 0.317687 0.0791051
6122 431 0.22398 0.318174 0.0840243
6123 408 0.217869 0.317424 0.0805233
6124 406 0.212116 0.318754 0.0836844
6125 407 0.211577 0.320753 0.0894757
6126 80 0.206011 0.317446 0.0793447
6127 85 0.229518 0.321599 0.0753185
6129 85 0.229889 0.312871 0.076555
6130 410 0.224376 0.314279 0.0878137
6131 410 0.224114 0.322986 0.0865887
6132 85 0.20467 0.312172 0.0796047
6133 85 0.201773 0.320404 0.081082
6134 85 0.207029 0.318737 0.0741421
6128 85 0.234573 0.318246 0.0817215
92 715 0.326926 0.350196 0.07808
99 718 0.322615 0.348578 0.0809945
100 718 0.326691 0.355594 0.077394
93 714 0.333012 0.348487 0.0811752
94 713 0.337363 0.345687 0.077
95 712 0.343182 0.344237 0.0782586
6248 431 0.00217331 0.385712 0.084067
6249 408 0.00494848 0.388997 0.0784404
6250 406 0.00677639 0.385373 0.0731168
6251 407 0.00617832 0.37928 0.0725295
6255 85 0.00319394 0.39434 0.0906528
6256 410 0.00603976 0.382763 0.0865248
6141 85 0.0800591 0.433019 0.105064
5984 406 0.326456 0.432576 0.102363
5985 407 0.320635 0.432826 0.104332
5986 80 0.330068 0.425947 0.101444
5992 85 0.332898 0.424758 0.105945
5993 85 0.326492 0.421935 0.100524
5994 85 0.333524 0.426206 0.0972295
6148 85 0.0606525 0.444785 0.106133
6288 85 0.0817402 0.461194 0.103376
6286 85 0.0780424 0.453395 0.105382
6285 410 0.0978064 0.451495 0.0928502
6275 80 0.0925242 0.454345 0.0838626
6276 431 0.0927739 0.451085 0.0907865
6277 408 0.0881163 0.454242 0.0950875
6278 406 0.0880612 0.452596 0.101585
6279 407 0.0918071 0.448537 0.104286
6280 80 0.0826745 0.45626 0.10551
6281 85 0.0937591 0.459649 0.0841502
6282 85 0.0960996 0.451966 0.0805072
6283 85 0.08758 0.453882 0.0816171
6284 410 0.0915786 0.445783 0.0904084
6059 85 0.281146 0.441963 0.105043
5981 80 0.332536 0.449451 0.0985809
5982 431 0.32772 0.444377 0.101692
5983 408 0.33032 0.437841 0.100878
5987 85 0.333192 0.448511 0.0932492
5988 85 0.330617 0.454518 0.0991704
5991 410 0.322825 0.444769 0.0993185
5990 410 0.327064 0.445412 0.107001
5989 85 0.337444 0.449252 0.100943
5995 80 0.20469 0.0317621 0.132081
5996 431 0.204471 0.0321903 0.139721
6002 85 0.209557 0.0299661 0.130409
6003 85 0.200908 0.0283378 0.130166
6004 410 0.205394 0.0272873 0.14191
3693 718 0.4586 0.00106913 0.131829
3694 718 0.460137 0.00183334 0.123269
5997 408 0.198105 0.0345146 0.141781
6001 85 0.203836 0.0366539 0.129828
6005 410 0.208383 0.0355502 0.141499
2298 713 0.278947 0.0635825 0.138372
2299 712 0.284452 0.0615814 0.13655
2305 718 0.264358 0.0681426 0.135578
2297 714 0.274675 0.067225 0.134796
2296 715 0.268926 0.0690891 0.138394
2306 718 0.269189 0.0743959 0.139614
21 715 0.413939 0.0971134 0.127089
22 715 0.419227 0.0917137 0.128046
23 714 0.42121 0.0903721 0.12143
24 713 0.419046 0.0949232 0.117094
25 712 0.420621 0.095336 0.111191
26 714 0.414903 0.0989688 0.120372
28 718 0.408897 0.0951337 0.127768
29 718 0.417273 0.0872865 0.130552
30 718 0.42349 0.0936189 0.130848
6 714 0.464731 0.0979253 0.136514
8 718 0.454576 0.0990484 0.137308
4 713 0.467426 0.0925959 0.139453
5 712 0.472081 0.0892255 0.137321
5883 80 0.19694 0.118316 0.139565
5889 85 0.194597 0.113392 0.139649
5890 85 0.19315 0.121959 0.138131
5891 85 0.200775 0.118293 0.135692
27 718 0.414688 0.101335 0.130456
1 715 0.459139 0.100446 0.139961
7 718 0.459334 0.105868 0.140495
6203 85 0.0114316 0.154516 0.107817
5813 80 0.117549 0.294835 0.118449
5819 85 0.115877 0.291499 0.122426
5820 85 0.116939 0.292231 0.113701
5821 85 0.12287 0.295774 0.119159
5814 431 0.113527 0.301349 0.118471
5815 408 0.114404 0.304653 0.124673
5816 406 0.110469 0.30986 0.126179
5817 407 0.105915 0.312054 0.122675
5818 80 0.112228 0.313035 0.13286
5822 410 0.115201 0.30461 0.11444
5823 410 0.108248 0.300267 0.117629
5824 85 0.116319 0.316571 0.132191
5825 85 0.107932 0.315712 0.134885
5826 85 0.113774 0.309233 0.136456
2320 717 0.410877 0.315825 0.131152
2321 716 0.418273 0.317793 0.131496
2322 715 0.422893 0.312031 0.13339
2323 714 0.428213 0.312824 0.128859
2324 713 0.426868 0.317116 0.123954
2325 712 0.430495 0.318483 0.1192
2326 714 0.420794 0.319616 0.125185
2327 720 0.407772 0.320126 0.129859
2328 720 0.410062 0.311934 0.127407
2329 720 0.409193 0.313911 0.135975
2330 719 0.419021 0.322012 0.134874
2331 718 0.424554 0.312336 0.138569
2332 718 0.420516 0.307195 0.132567
5969 408 0.375393 0.359032 0.142335
5970 406 0.379797 0.356578 0.137929
5971 407 0.38493 0.359387 0.136036
5972 80 0.377795 0.349739 0.135276
5978 85 0.374299 0.350325 0.131139
5979 85 0.382177 0.347039 0.133479
5980 85 0.375399 0.346779 0.139184
5976 410 0.375706 0.369227 0.141178
6135 80 0.0784029 0.429903 0.109222
6142 85 0.082787 0.42744 0.111324
6143 85 0.0751125 0.426038 0.107238
6144 410 0.0733513 0.430973 0.118732
6062 85 0.266531 0.432942 0.123685
6039 408 0.32524 0.426983 0.137615
6040 406 0.318861 0.425591 0.136111
6041 407 0.314679 0.423298 0.139993
6042 80 0.317164 0.427059 0.128845
6048 85 0.31852 0.422791 0.125742
6049 85 0.311818 0.427977 0.128289
6050 85 0.319882 0.431443 0.127069
6045 85 0.338125 0.426683 0.141505
6138 406 0.0660945 0.442106 0.115082
6140 80 0.0598628 0.44463 0.111529
6146 85 0.055673 0.44131 0.112584
6147 85 0.0585854 0.449641 0.113256
6136 431 0.0748837 0.434117 0.114555
6137 408 0.0691643 0.437194 0.111726
6139 407 0.0678894 0.44445 0.120476
6145 410 0.0783174 0.437883 0.116498
6287 85 0.0841912 0.456868 0.110712
6063 85 0.266368 0.43881 0.13031
6064 85 0.264625 0.441433 0.122026
6058 85 0.288581 0.446155 0.107216
6051 80 0.283432 0.445241 0.108749
6052 431 0.283229 0.442128 0.115739
6053 408 0.276495 0.440967 0.117594
6054 406 0.275077 0.439453 0.123959
6055 407 0.27914 0.439096 0.128563
6056 80 0.267678 0.438086 0.125067
6057 85 0.280773 0.450002 0.108663
6060 410 0.285952 0.437409 0.115788
6061 410 0.285641 0.445461 0.119319
9794 80 0.498172 0.444001 0.123121
9800 85 0.495385 0.439508 0.121806
9801 85 0.495853 0.446264 0.127506
9802 85 0.497871 0.447524 0.118966
5998 406 0.197201 0.0363264 0.148164
6000 80 0.190039 0.0384123 0.149637
6006 85 0.187013 0.0339963 0.150653
6007 85 0.189867 0.0416775 0.153999
6008 85 0.187888 0.0410635 0.145381
5999 407 0.201516 0.0363265 0.152548
2304 719 0.266217 0.0603481 0.144149
2295 716 0.269422 0.0647375 0.144635
2300 714 0.276109 0.0625674 0.144336
2301 720 0.268332 0.0651818 0.15545
130 718 0.332875 0.0518291 0.165784
129 718 0.331168 0.0436248 0.168715
128 718 0.326811 0.0403705 0.158239
127 718 0.32634 0.0490762 0.156437
121 715 0.32965 0.0450256 0.157976
122 715 0.333172 0.0465302 0.164562
126 714 0.335059 0.0442611 0.153542
123 714 0.339846 0.0448294 0.163111
124 713 0.340948 0.0439194 0.156618
125 712 0.346384 0.0429613 0.153957
2303 720 0.262911 0.0705862 0.151039
2294 717 0.267955 0.06851 0.151139
2302 720 0.271471 0.0726298 0.151841
2 715 0.459672 0.0968555 0.146654
3 714 0.464113 0.0916132 0.145135
9 718 0.454862 0.0950516 0.148471
5884 431 0.199884 0.120063 0.146412
5893 410 0.195921 0.12017 0.150158
5885 408 0.2048 0.115277 0.148168
5886 406 0.207221 0.115228 0.154413
5887 407 0.205458 0.118952 0.15898
5888 80 0.212645 0.109995 0.155418
5892 410 0.202155 0.125014 0.146279
5894 85 0.217447 0.111994 0.153798
5895 85 0.213018 0.108628 0.160682
5896 85 0.211553 0.105504 0.152517
10 718 0.461919 0.100074 0.150428
6068 406 0.0956621 0.144152 0.164231
6069 407 0.094327 0.140391 0.159551
6070 80 0.090246 0.146842 0.168841
6076 85 0.0886424 0.151755 0.167117
6077 85 0.0859304 0.143511 0.168854
6078 85 0.0921136 0.147305 0.173946
6065 80 0.113798 0.146516 0.165334
6066 431 0.107296 0.144496 0.161834
6067 408 0.101767 0.146388 0.165835
6071 85 0.114253 0.144053 0.170177
6072 85 0.11811 0.145101 0.162315
6073 85 0.114035 0.151899 0.16615
6074 410 0.106931 0.146942 0.15698
6075 410 0.107253 0.13911 0.160973
6267 85 0.114699 0.272441 0.176918
3013 714 0.0320441 0.331674 0.159378
3014 717 0.0322917 0.327147 0.153925
3021 720 0.027777 0.324093 0.153734
3022 720 0.0327295 0.329864 0.149216
3020 720 0.0366076 0.323855 0.154418
3008 717 0.0183346 0.346201 0.167746
3009 715 0.0252745 0.347104 0.164617
3010 714 0.0287976 0.340947 0.164327
3011 713 0.0275853 0.336656 0.159317
3012 712 0.0231213 0.337339 0.155127
3015 720 0.015523 0.350869 0.167663
3016 720 0.0187267 0.344534 0.172923
3017 720 0.0154429 0.342492 0.165001
3018 718 0.0281706 0.350617 0.167606
3019 718 0.0248593 0.349296 0.159634
5975 85 0.366436 0.366318 0.149227
5967 80 0.371624 0.366646 0.150865
5968 431 0.376473 0.36548 0.145058
5973 85 0.372385 0.362961 0.154811
5977 410 0.381614 0.365956 0.146815
2967 712 0.255819 0.373874 0.176546
2968 714 0.244896 0.377079 0.176134
2969 717 0.245277 0.378945 0.169302
2975 720 0.240333 0.380301 0.167452
2976 720 0.248618 0.383206 0.168642
2977 720 0.247161 0.374801 0.166298
5974 85 0.372378 0.371597 0.153016
2982 712 0.0980415 0.414286 0.168398
2987 720 0.0897356 0.409557 0.177812
2989 718 0.0931483 0.421889 0.17764
2981 713 0.102478 0.414415 0.172669
2983 714 0.108957 0.413266 0.171483
2984 717 0.111206 0.412574 0.164794
2990 720 0.116649 0.412324 0.164663
2991 720 0.109193 0.40804 0.162528
2992 720 0.109606 0.416846 0.161802
6038 431 0.327602 0.425641 0.144156
6046 410 0.327828 0.420251 0.14492
6047 410 0.324163 0.427685 0.147863
6037 80 0.334546 0.428734 0.145066
6044 85 0.336434 0.42774 0.150081
6043 85 0.33438 0.43414 0.144371
2951 713 0.0612143 0.494091 0.174978
2953 714 0.0596353 0.489507 0.170373
2954 717 0.0604925 0.491031 0.1635
2960 720 0.0596465 0.486578 0.160473
2961 720 0.056995 0.494907 0.161922
2962 720 0.0655638 0.492809 0.162565
2952 712 0.0628193 0.499909 0.173747
2998 714 0.119627 0.498132 0.172916
2999 717 0.118811 0.493296 0.167794
3005 720 0.119033 0.495691 0.162903
3006 720 0.122725 0.489506 0.168064
3007 720 0.113979 0.490812 0.168275
7777 407 0.344408 0.00142252 0.200111
7783 410 0.352528 0.00347878 0.21013
6032 410 0.105577 0.229089 0.2038
6033 410 0.113119 0.233004 0.206074
6023 80 0.106969 0.238888 0.199423
6024 431 0.107815 0.233871 0.205144
6025 408 0.104666 0.236363 0.210978
6029 85 0.109247 0.243681 0.200678
6030 85 0.109353 0.237029 0.194888
6031 85 0.101709 0.239763 0.198296
6268 85 0.112775 0.266036 0.182668
101 715 0.285472 0.264608 0.196642
106 714 0.290569 0.26436 0.191799
107 718 0.28077 0.266387 0.194532
108 718 0.284728 0.259643 0.198787
6261 80 0.113554 0.271405 0.182148
6262 431 0.119239 0.273743 0.18671
6263 408 0.120152 0.280728 0.185982
6264 406 0.125552 0.283609 0.188706
6265 407 0.130036 0.280692 0.19174
6266 80 0.125647 0.291153 0.187762
6269 85 0.108862 0.273893 0.183372
6270 410 0.118066 0.272614 0.191909
6271 410 0.123836 0.271093 0.185445
6272 85 0.122689 0.293529 0.191672
6273 85 0.130753 0.293041 0.188056
6274 85 0.123553 0.292517 0.182912
102 715 0.28835 0.269462 0.201759
103 714 0.295097 0.269874 0.199793
104 713 0.296224 0.267242 0.193792
109 718 0.287805 0.267669 0.206877
110 718 0.286033 0.274372 0.201332
105 712 0.301493 0.267442 0.19067
5835 85 0.0654933 0.344087 0.193268
5827 80 0.0704848 0.342651 0.191618
5828 431 0.0756043 0.348154 0.193069
5829 408 0.0737209 0.354071 0.189663
5830 406 0.0780654 0.359151 0.189291
5831 407 0.0837749 0.359176 0.191577
5832 80 0.075189 0.365206 0.1857
5833 85 0.0702509 0.341568 0.186278
5834 85 0.0718327 0.33805 0.194209
5836 410 0.0758435 0.349148 0.19842
5837 410 0.0805629 0.34654 0.191469
5840 85 0.0719412 0.36365 0.1816
2973 718 0.250747 0.365405 0.192653
2974 718 0.256029 0.364869 0.18572
81 715 0.445019 0.354809 0.208466
82 715 0.44366 0.360603 0.21322
86 714 0.44841 0.350249 0.212613
87 718 0.44807 0.356313 0.204205
88 718 0.44038 0.352563 0.206666
89 718 0.438535 0.362424 0.212883
90 718 0.447087 0.364737 0.212312
5838 85 0.0722735 0.368201 0.189195
5839 85 0.0791951 0.368301 0.183678
2963 717 0.258368 0.37303 0.192496
2964 715 0.253395 0.368395 0.188951
2965 714 0.248628 0.372092 0.185208
2966 713 0.250241 0.374385 0.179114
2970 720 0.262217 0.370169 0.195085
2971 720 0.255836 0.376184 0.196153
2972 720 0.260869 0.376286 0.188919
2978 717 0.0902454 0.412537 0.182341
2979 715 0.095157 0.418323 0.181254
2985 720 0.0852914 0.414389 0.183654
2986 720 0.0919577 0.409245 0.186336
2988 718 0.095802 0.421057 0.185919
2980 714 0.101505 0.415961 0.179124
2307 717 0.258087 0.428307 0.198057
2308 716 0.264062 0.423529 0.198459
2311 713 0.265227 0.412902 0.202575
2312 712 0.264955 0.406783 0.20293
2313 714 0.262048 0.416794 0.19817
2314 720 0.25566 0.427988 0.193177
2315 720 0.254382 0.42713 0.201894
2319 718 0.264644 0.425981 0.209051
2309 715 0.267726 0.42376 0.205141
2310 714 0.26873 0.41694 0.206538
2317 719 0.267548 0.424404 0.194352
2318 718 0.272427 0.426495 0.204821
2316 720 0.259718 0.433459 0.198802
6168 80 0.393795 0.455459 0.202697
6174 85 0.394072 0.456902 0.207944
6175 85 0.390907 0.459221 0.20001
6176 85 0.3912 0.450673 0.202336
6163 80 0.412008 0.440437 0.199569
6164 431 0.410317 0.44787 0.198858
6165 408 0.403672 0.449004 0.201026
6166 406 0.400811 0.454937 0.199811
6167 407 0.403398 0.459621 0.196778
6169 85 0.408663 0.437378 0.196537
6170 85 0.417116 0.439476 0.197929
6171 85 0.411584 0.438782 0.204744
6172 410 0.413731 0.450874 0.201859
6173 410 0.410903 0.449412 0.193659
2949 715 0.0634526 0.495146 0.186658
2950 714 0.0610406 0.491409 0.181124
2956 720 0.0537733 0.497519 0.191038
2958 718 0.0647365 0.491683 0.190659
2959 718 0.068066 0.497747 0.18533
3000 720 0.121175 0.497771 0.199503
2993 717 0.122701 0.498599 0.194337
2996 713 0.118695 0.496352 0.179294
2997 712 0.117775 0.490581 0.18124
3002 720 0.124611 0.493877 0.192412
3004 718 0.112546 0.497739 0.190583
2935 714 0.0510795 0.0252356 0.248438
2936 713 0.0532481 0.0307732 0.245335
2938 714 0.0531873 0.0299221 0.238704
2945 720 0.0563593 0.033014 0.22938
2937 712 0.0552204 0.0358496 0.248214
2939 717 0.0562566 0.0347713 0.234539
2946 720 0.0535311 0.039492 0.234723
2947 720 0.0613883 0.0356847 0.236148
51 715 0.115855 0.0490429 0.227658
52 715 0.119784 0.0537848 0.232141
53 714 0.11911 0.0507644 0.238463
54 713 0.116691 0.0445795 0.238149
55 712 0.116148 0.0406498 0.242819
56 714 0.114989 0.0434374 0.231819
57 718 0.118585 0.0477712 0.223113
58 718 0.110986 0.0511185 0.226322
59 718 0.117799 0.0588594 0.232064
60 718 0.125046 0.0539048 0.230742
5925 80 0.29945 0.0577989 0.231894
5933 85 0.294173 0.0571152 0.230718
5934 410 0.29792 0.0649918 0.239833
5926 431 0.300732 0.0645915 0.235184
5931 85 0.302289 0.0573078 0.227264
5932 85 0.300949 0.0537516 0.235222
5935 410 0.306024 0.0650835 0.236412
5927 408 0.298737 0.0697714 0.230784
5930 80 0.297638 0.0810739 0.227179
5936 85 0.292502 0.0823374 0.228487
5938 85 0.297691 0.0789625 0.222148
5928 406 0.300412 0.0760953 0.232213
5929 407 0.303757 0.0779283 0.237039
5937 85 0.300607 0.0856466 0.227189
6022 85 0.327512 0.0989583 0.235338
31 715 0.159601 0.107792 0.24553
32 715 0.157508 0.114766 0.24777
37 718 0.163227 0.107938 0.241461
38 718 0.155296 0.104798 0.244012
39 718 0.152475 0.116065 0.246131
40 718 0.161 0.118538 0.245972
3067 720 0.263545 0.122844 0.219285
3066 720 0.2597 0.115174 0.217133
3064 718 0.245637 0.131716 0.23154
3063 718 0.244756 0.128278 0.239519
3062 720 0.238157 0.122363 0.227019
3061 720 0.237001 0.119539 0.235288
3060 720 0.234036 0.127495 0.232843
3059 717 0.262315 0.11785 0.221102
3058 714 0.258304 0.11826 0.226936
3057 712 0.250375 0.124648 0.221831
3056 713 0.252738 0.121962 0.226847
3055 714 0.250202 0.122544 0.23303
3054 715 0.244827 0.127028 0.234219
3053 717 0.238105 0.12392 0.232236
3065 720 0.266964 0.115228 0.222205
6010 431 0.32499 0.115523 0.245536
6011 408 0.325015 0.109676 0.241541
6012 406 0.328251 0.10974 0.23568
6013 407 0.331419 0.114484 0.233373
6014 80 0.32759 0.103184 0.231887
6018 410 0.321974 0.119356 0.243107
6019 410 0.330053 0.117487 0.246043
6020 85 0.322955 0.10318 0.229023
6021 85 0.331766 0.102549 0.22844
5918 85 0.159523 0.198358 0.22271
5919 85 0.150966 0.19914 0.220784
6027 407 0.109448 0.228468 0.217733
6026 406 0.105756 0.233306 0.216837
5911 80 0.155367 0.201876 0.222473
5912 431 0.154198 0.205111 0.229312
5913 408 0.148774 0.209645 0.228897
5914 406 0.147619 0.213824 0.234004
5915 407 0.150993 0.214253 0.239128
5916 80 0.141457 0.218147 0.23293
5917 85 0.156559 0.205642 0.218714
5920 410 0.153074 0.201294 0.233034
5921 410 0.158717 0.207704 0.230928
5922 85 0.137 0.215395 0.23443
5923 85 0.141779 0.222694 0.23592
5924 85 0.140966 0.219538 0.227677
5955 408 0.229634 0.23203 0.230616
5959 85 0.231817 0.229454 0.21762
5961 85 0.229755 0.221927 0.221735
5953 80 0.233623 0.225722 0.221163
5954 431 0.235394 0.228951 0.227874
5960 85 0.238003 0.223317 0.218988
5962 410 0.237248 0.225184 0.231347
5963 410 0.239356 0.232632 0.227168
11 715 0.429171 0.227184 0.231352
12 715 0.428799 0.231844 0.237368
17 718 0.427111 0.229467 0.22685
18 718 0.426615 0.222458 0.232317
19 718 0.424958 0.230354 0.240934
13 714 0.435275 0.23131 0.240071
14 713 0.439558 0.22829 0.235981
15 712 0.445593 0.227678 0.236853
16 714 0.436092 0.226061 0.230762
6034 85 0.0967534 0.234346 0.222604
6028 80 0.101798 0.236404 0.222543
6035 85 0.104177 0.235315 0.227325
6036 85 0.101466 0.241818 0.221946
5956 406 0.230311 0.236085 0.235903
5958 80 0.22365 0.238742 0.238437
5964 85 0.221361 0.235084 0.241763
5965 85 0.224382 0.243384 0.2412
5966 85 0.220246 0.239696 0.234281
5957 407 0.235616 0.237586 0.238625
71 715 0.374537 0.253698 0.239228
72 715 0.375203 0.253059 0.246789
73 714 0.381024 0.249154 0.247453
74 713 0.384439 0.24858 0.241777
75 712 0.389924 0.24593 0.241088
76 714 0.38081 0.251428 0.236985
77 718 0.373578 0.258836 0.237674
78 718 0.370597 0.250459 0.237283
79 718 0.370861 0.250684 0.249072
80 718 0.375999 0.257921 0.24911
20 718 0.427903 0.236988 0.235821
9433 85 0.496939 0.265035 0.223014
6577 85 0.104902 0.294986 0.249973
2930 720 0.190846 0.364031 0.227285
2931 720 0.182005 0.363472 0.227094
83 714 0.445053 0.35774 0.219498
84 713 0.448192 0.351896 0.219054
85 712 0.450471 0.348636 0.223716
2924 717 0.186217 0.366702 0.228352
2918 717 0.171645 0.376683 0.249204
2919 715 0.178196 0.37963 0.246524
2920 714 0.182292 0.37461 0.243618
2921 713 0.181083 0.372562 0.237345
2922 712 0.176223 0.37429 0.23398
2923 714 0.186002 0.36858 0.235187
2927 720 0.168938 0.374083 0.245259
2929 718 0.177178 0.383584 0.242898
2932 720 0.186004 0.371121 0.225161
6298 410 0.329226 0.392232 0.233288
6293 407 0.329761 0.384267 0.245402
6292 406 0.332058 0.389867 0.2465
6299 410 0.336253 0.387076 0.234479
6296 85 0.338595 0.395625 0.225706
6295 85 0.343842 0.396934 0.232673
6291 408 0.334514 0.394062 0.241893
6290 431 0.334373 0.392162 0.235071
6289 80 0.33866 0.397006 0.230977
6297 85 0.336824 0.402121 0.231378