ITEM: TIMESTEP
0
ITEM: NUMBER OF ATOMS
1510
ITEM: BOX BOUNDS pp pp pp
-1.0000000000000000e+02 1.0000000000000000e+02
-1.0000000000000000e+02 1.0000000000000000e+02
-1.0000000000000000e+02 1.0000000000000000e+02
ITEM: ATOMS x y z type id c_my_entropy
26.5697 -64.8285 -99.8868 89 1335 -15.2764
27.2688 -63.0707 -98.7396 458 1330 -15.2764
27.2941 -63.401 -97.7445 89 1336 -15.2764
26.9037 -63.8071 -99.8038 458 1329 -15.2764
27.5665 -61.7659 -99.1937 714 1331 -15.2764
24.477 -46.7695 -94.4069 714 1339 -16.1877
23.066 -44.9483 -94.1411 712 1341 -16.1877
23.2703 -48.5979 -94.1605 89 1344 -16.1877
23.6757 -47.6887 -93.7821 458 1338 -16.1877
23.7098 -45.8736 -93.6212 713 1340 -16.1877
-36.2816 -43.2982 -85.9629 712 219 -26.9758
-34.092 -43.9232 -85.8682 714 217 -26.6955
-34.8535 -43.2447 -87.7505 714 220 -26.6955
-35.1854 -43.4558 -86.4728 713 218 -26.6955
-33.7002 -44.5404 -88.7714 719 224 -26.6955
-33.0226 -44.164 -86.7516 715 216 -26.6955
-32.7839 -45.2295 -86.7829 718 225 -26.6955
-33.5716 -43.6965 -88.0914 716 215 -26.6955
-32.1341 -43.6241 -86.433 718 226 -26.6955
-31.7947 -42.9392 -89.078 720 223 -27.2236
22.8091 -47.8666 -91.9404 89 1343 -16.1877
23.95 -46.0708 -92.2747 714 1342 -16.1877
23.4138 -47.2809 -92.6001 458 1337 -16.1877
-32.7633 -42.5681 -88.752 717 214 -26.6955
-33.2859 -42.1665 -89.6057 720 221 -26.6955
-32.6206 -41.7318 -88.0701 720 222 -26.6955
91.1562 -71.8387 -79.4632 788 1250 -20.4039
91.6724 -70.8818 -79.3728 715 1242 -20.4039
90.7931 -69.9656 -79.8503 786 1247 -20.4039
92.951 -71.0386 -79.9484 714 1243 -20.4039
95.1137 -71.3453 -79.3067 712 1245 -20.4039
93.9404 -71.0789 -79.0644 713 1244 -20.4039
-7.92868 -81.1162 -72.375 713 14 -20.7125
-8.82401 -80.8069 -71.4361 714 16 -20.7125
-8.14304 -81.66 -73.4489 712 15 -20.7125
-6.7486 -80.7154 -71.907 714 13 -20.7125
91.7828 -69.6121 -77.592 718 1248 -20.4039
91.5206 -71.3182 -77.2469 718 1249 -20.4039
92.0312 -70.6229 -77.909 715 1241 -20.4039
93.423 -70.822 -77.8685 714 1246 -20.4039
-75.8834 -43.6641 -73.907 85 1089 -24.7193
-76.4508 -44.9051 -75.2343 85 1088 -24.7193
-76.6727 -44.0911 -74.4586 80 1081 -24.7193
-77.2727 -44.763 -73.7962 85 1087 -24.7193
-78.4789 -43.2582 -75.5388 410 1090 -22.9246
-77.6779 -42.9005 -74.895 431 1082 -22.9246
-78.9507 -41.6949 -77.0224 407 1085 -22.9246
-77.9233 -41.1078 -76.5719 406 1084 -22.9246
-77.083 -41.7917 -75.5895 408 1083 -22.9246
-77.9852 -42.4161 -74.0227 410 1091 -22.9246
-77.6065 -39.7109 -77.0525 80 1086 -24.5428
-76.5445 -39.3619 -76.9757 85 1092 -24.5428
-77.7408 -39.7749 -78.1968 85 1093 -24.5428
-78.2743 -39.1504 -76.4254 85 1094 -24.5428
-40.9232 -86.7736 -68.2008 85 1477 -21.9677
-42.4995 -85.9717 -67.9156 85 1476 -21.9677
-41.4167 -85.8476 -67.8567 124 1468 -21.9677
-40.9944 -85.6219 -66.4028 431 1469 -21.9677
-40.3904 -84.0011 -66.1425 415 1470 -21.9677
-41.045 -83.4369 -64.9972 416 1471 -21.9677
-40.9383 -83.3464 -67.6535 431 1473 -21.9677
-38.9462 -84.0446 -66.2044 416 1472 -21.9677
-39.9004 -84.8069 -68.8388 85 1475 -21.9677
-41.6015 -84.4158 -69.4214 85 1474 -21.9677
-40.9465 -84.5887 -68.5573 124 1467 -21.9677
-8.46957 -78.9592 -70.6209 718 17 -20.7125
-8.27922 -80.0111 -70.4129 715 11 -20.7125
-8.68323 -80.2543 -69.431 718 18 -20.7125
-6.55412 -81.2471 -69.9622 718 19 -20.7125
-6.80598 -80.3628 -70.5507 715 12 -20.7125
-6.12328 -79.5526 -70.2918 718 20 -20.7125
62.5471 -45.7949 -64.4877 714 1236 -20.4259
62.2703 -47.0324 -64.8696 713 1234 -20.4259
63.1408 -47.8456 -64.2918 714 1233 -20.4259
61.388 -47.3696 -65.6493 712 1235 -20.4259
-43.0511 -8.44464 -64.5946 718 417 -24.1691
-44.8853 -10.0297 -64.8319 720 415 -25.5842
-38.9758 -8.76751 -67.2626 720 418 -24.7036
-40.7313 -9.85939 -67.4006 714 411 -23.8845
-39.6978 -9.12665 -68.0002 717 412 -24.7036
-39.1662 -9.74752 -68.7191 720 419 -23.9516
-40.1196 -8.30943 -68.5897 720 420 -24.6623
-42.8273 -9.50984 -64.5723 715 407 -24.1691
-42.3631 -9.94436 -65.83 714 408 -23.5062
-41.4627 -9.18157 -66.4849 713 409 -23.5062
-41.2486 -7.99305 -66.2051 712 410 -23.5062
63.1081 -45.4372 -62.5449 718 1238 -20.4259
63.5395 -45.7493 -63.4944 715 1231 -20.4259
64.0457 -47.194 -63.434 715 1232 -20.4259
64.2474 -47.604 -62.1445 786 1237 -20.4259
64.3249 -45.0483 -63.7708 718 1239 -20.4259
65.0243 -47.2445 -63.9141 788 1240 -20.4259
20.1056 -28.452 -57.8176 85 1201 -25.8664
-44.0637 -10.2673 -64.152 717 406 -25.5842
-44.3416 -10.0302 -63.1255 720 413 -25.4211
-43.8736 -11.338 -64.2014 720 414 -25.5842
-42.0298 -9.70634 -63.8424 718 416 -24.7398
-15.4332 -52.6755 -51.0392 718 39 -20.7098
-14.3585 -52.8063 -50.902 715 32 -20.7098
-14.3159 -53.5148 -52.9671 718 38 -20.7098
-13.8911 -51.8292 -50.7745 718 40 -20.7098
-14.059 -54.9435 -50.1743 713 34 -20.7098
-13.7757 -53.6411 -52.0293 715 31 -20.7098
-12.7227 -53.4198 -52.1949 718 37 -20.7098
-13.941 -54.9359 -51.4999 714 36 -20.7098
90.0965 -42.244 -50.0534 788 1260 -20.4193
19.7733 -28.5869 -56.8266 80 1193 -25.8664
20.9869 -28.61 -55.9213 431 1194 -24.8084
19.2551 -29.5369 -56.8966 85 1199 -26.0888
21.2477 -29.6246 -55.8043 410 1203 -24.8084
24.0645 -28.8667 -55.9713 407 1197 -24.8084
-61.0193 -21.7238 -52.3824 717 361 -25.323
-61.254 -22.2726 -53.7935 715 362 -24.1681
-61.7383 -23.5822 -53.6294 714 363 -22.8855
-61.9726 -21.6474 -54.3371 718 372 -24.1681
-60.3099 -22.2859 -54.355 718 371 -25.323
-62.2501 -23.7567 -55.8217 712 365 -22.8855
-64.1133 -25.8675 -55.6781 720 375 -23.8486
-62.2748 -24.1875 -54.6634 713 364 -22.8855
-60.1414 -22.2144 -51.9639 720 369 -25.323
-62.5725 -26.7268 -55.7946 720 373 -23.321
-61.8705 -21.9409 -51.7301 720 370 -25.323
-62.7585 -25.3605 -54.2039 714 366 -23.2209
-63.3188 -26.3405 -55.101 717 367 -23.8486
-63.7769 -27.1479 -54.5276 720 374 -23.321
19.2387 -27.6698 -56.3374 85 1200 -25.8664
20.6139 -28.2336 -54.9132 410 1202 -24.8084
24.0033 -27.7297 -53.6755 85 1205 -26.2173
23.2244 -28.0642 -55.6889 406 1196 -24.8084
22.0426 -27.7516 -56.2303 408 1195 -24.8084
22.6934 -26.6265 -54.3223 85 1204 -25.3553
23.6376 -27.1814 -54.5365 80 1198 -25.3553
24.491 -26.5536 -54.8781 85 1206 -26.2173
-60.8073 -20.6561 -52.4345 720 368 -25.0225
47.7961 -9.1508 -53.4158 720 340 -24.6887
49.05 -7.9831 -53.017 720 339 -24.6887
49.1924 -11.0014 -52.455 718 342 -23.7417
49.4397 -9.96535 -52.216 715 332 -23.7417
48.8805 -9.5781 -50.9443 714 333 -22.4938
48.8724 -9.02 -53.2969 717 331 -24.6887
49.3254 -9.23393 -54.2643 720 338 -24.1125
50.5309 -9.88724 -52.1993 718 341 -24.6887
12.5213 -1.41475 -55.8139 717 201 -26.5691
11.5365 -1.28267 -56.2636 720 209 -26.5691
12.1766 -0.29184 -53.5036 714 207 -26.5691
12.5204 -2.36404 -55.2843 720 208 -26.5691
12.808 -0.267998 -54.7967 716 202 -26.5691
13.3082 -1.49155 -56.5704 720 210 -27.0587
13.8811 -0.236401 -54.5929 719 211 -26.5691
-19.2267 -81.1899 -48.2574 717 352 -24.0788
-19.0258 -81.8255 -49.1199 720 360 -23.4719
-18.2873 -80.7834 -47.8805 720 359 -24.0788
-18.0215 -83.0723 -46.6612 712 350 -22.9582
-19.8918 -80.3776 -48.5489 720 358 -23.4719
-19.6966 -85.0711 -44.8299 718 356 -25.2528
-19.2119 -82.7729 -46.5127 713 349 -22.9582
-19.8963 -81.896 -47.2396 714 351 -23.3255
-18.3897 -83.9467 -44.4582 718 357 -24.2348
-20.0039 -83.1978 -45.5222 714 348 -22.9582
-19.4753 -84.0451 -44.5254 715 347 -24.2348
-20.1621 -83.7181 -43.1979 717 346 -25.2528
-21.1702 -83.3454 -43.3815 720 354 -25.2528
-14.1682 -53.6662 -49.8085 714 33 -20.7098
-14.0784 -55.9238 -49.4401 712 35 -20.7098
88.542 -43.2759 -48.6469 718 1259 -20.4193
90.9517 -41.3254 -48.4568 714 1253 -20.4193
90.9167 -41.8769 -47.2484 713 1254 -20.4193
91.8012 -41.8114 -46.4007 712 1255 -20.4193
89.7765 -42.5564 -47.1487 714 1256 -20.4193
89.1741 -40.529 -49.8107 786 1257 -20.4193
88.0597 -41.746 -47.9353 718 1258 -20.4193
88.9184 -42.3386 -48.2435 715 1251 -20.4193
89.8079 -41.5857 -49.2347 715 1252 -20.4193
48.2578 -10.0733 -46.7499 720 344 -22.9431
48.1611 -10.6199 -47.6878 717 337 -23.5045
49.2864 -10.1039 -49.758 713 334 -22.4938
48.3618 -9.75901 -48.8172 714 336 -22.897
47.1718 -11.0756 -47.7104 720 345 -22.9431
48.8962 -11.4243 -47.6855 720 343 -23.5045
50.2433 -10.8431 -49.6122 712 335 -22.897
9.80863 -93.5516 -41.1219 415 1459 -21.8944
9.48124 -94.2498 -42.2995 416 1461 -21.8944
8.95356 -93.6857 -39.9919 416 1460 -21.8944
11.4408 -94.209 -40.6672 431 1462 -21.8944
12.3725 -93.4038 -41.5276 124 1456 -21.8944
12.4579 -93.9328 -42.4536 85 1464 -21.8944
13.3391 -93.4553 -41.1024 85 1463 -21.8944
-1.99794 -92.1667 -39.4636 720 434 -23.6578
-1.40667 -91.3119 -39.1379 717 427 -23.9591
-0.702731 -91.699 -38.3993 720 433 -23.8308
-0.822872 -90.9711 -39.9912 720 435 -23.6578
-3.32039 -87.0187 -36.0952 718 432 -25.6152
-2.79904 -87.9553 -35.8982 715 422 -24.4499
-1.30228 -90.3538 -36.5317 712 425 -23.0923
-2.23767 -90.2702 -38.5983 714 426 -23.3794
-2.05885 -89.8124 -37.3443 713 424 -23.0923
-2.8176 -88.6855 -37.1203 714 423 -23.0923
11.9019 -91.9604 -41.7598 124 1457 -21.8944
11.925 -91.7848 -42.8049 85 1466 -21.8944
10.3827 -91.9079 -41.3258 431 1458 -21.8944
12.5993 -91.2678 -41.3386 85 1465 -21.8944
-20.2834 -84.5963 -42.568 720 353 -24.9557
-19.6149 -82.9704 -42.6198 720 355 -25.2528
19.957 -23.3222 -38.6682 714 43 -20.7055
19.938 -22.0009 -38.8577 713 44 -20.7055
20.6137 -24.0026 -39.7095 715 42 -20.7055
21.3127 -22.9821 -41.5195 718 48 -20.7055
20.1975 -24.9896 -39.9138 718 50 -20.7055
20.3443 -21.7965 -40.1096 714 46 -20.7055
20.4614 -22.9974 -40.8396 715 41 -20.7055
19.5597 -23.1926 -41.4161 718 47 -20.7055
21.6631 -24.1115 -39.4279 718 49 -20.7055
19.6095 -21.1489 -38.0441 712 45 -20.7055
-4.67805 -88.6649 -35.0653 720 430 -25.6152
-3.46304 -88.2294 -33.8613 720 428 -25.2978
-3.61384 -88.7078 -34.8266 717 421 -25.6152
-3.31172 -89.7514 -34.7445 720 429 -25.0092
-1.77868 -87.7206 -35.5778 718 431 -25.0092
-65.7679 -88.3269 -24.2876 712 1325 -16.0257
-66.5268 -88.6081 -25.181 713 1324 -16.0257
-67.1496 -89.8073 -24.9587 714 1323 -16.0257
-66.5914 -87.6296 -26.1532 714 1326 -16.0257
-68.6186 -87.1432 -26.3722 89 1327 -16.0257
-67.9187 -87.8783 -25.9812 458 1321 -16.0257
-68.2116 -89.035 -25.3681 458 1322 -16.0257
-69.2016 -89.3853 -25.183 89 1328 -16.0257
49.749 -80.8934 -15.2247 85 1487 -21.9206
49.3214 -83.4699 -18.9671 416 1482 -21.9206
48.9147 -81.5324 -17.101 431 1480 -21.9206
49.8872 -82.255 -18.441 415 1481 -21.9206
49.9878 -79.7342 -16.4764 85 1488 -21.9206
50.0105 -80.7991 -16.2669 124 1479 -21.9206
51.4235 -82.5937 -17.5715 431 1484 -21.9206
51.4254 -81.4149 -16.5847 124 1478 -21.9206
51.8783 -81.8046 -15.6427 85 1485 -21.9206
50.1812 -81.1811 -19.3493 416 1483 -21.9206
52.0062 -80.5869 -17.0351 85 1486 -21.9206
77.1836 -67.7233 -15.9107 714 53 -20.7153
76.3651 -66.8112 -16.5938 715 52 -20.7153
75.379 -66.6923 -16.1432 718 60 -20.7153
76.2553 -67.1671 -17.6196 718 59 -20.7153
77.0061 -64.9406 -15.6976 718 57 -20.7153
77.1452 -64.9674 -17.4673 718 58 -20.7153
77.232 -65.5653 -16.5604 715 51 -20.7153
78.5092 -66.1491 -16.4406 714 56 -20.7153
78.4697 -67.3844 -15.9445 713 54 -20.7153
79.4195 -68.0783 -15.6029 712 55 -20.7153
-59.1218 -37.1934 -14.3164 718 68 -20.6548
-58.2729 -37.6616 -14.8164 715 61 -20.6548
-58.2609 -37.339 -15.8531 718 67 -20.6548
-58.3386 -39.0701 -14.8003 714 66 -20.6548
-56.8652 -40.8324 -14.744 712 65 -20.6548
-56.3811 -36.568 -14.5962 718 70 -20.6548
-56.2584 -38.6436 -14.4327 714 63 -20.6548
-57.1289 -39.6403 -14.6599 713 64 -20.6548
-16.509 -40.351 -16.8649 720 405 -23.748
-14.8958 -40.818 -16.3802 720 404 -23.748
-15.6313 -40.0201 -16.3137 717 397 -24.2015
-15.1885 -39.1138 -16.7275 720 403 -24.2015
-16.0668 -39.8517 -14.9814 714 396 -23.4989
9.17606 -42.9091 -8.128 712 455 -23.3648
9.30909 -45.4131 -9.32218 717 457 -24.3964
8.11452 -44.711 -9.04031 714 456 -23.7034
8.19124 -43.449 -8.60771 713 454 -23.3648
9.09928 -46.3803 -9.77698 720 464 -23.8724
9.94201 -44.8705 -10.0264 720 465 -24.2112
9.83318 -45.6407 -8.39328 720 463 -23.8724
-57.007 -37.2671 -13.085 718 69 -20.6548
-56.9103 -37.418 -14.1657 715 62 -20.6548
-15.584 -39.6404 -10.3185 720 400 -25.6613
-15.3701 -37.3346 -12.3029 718 401 -24.5153
-15.8917 -38.218 -11.9275 715 392 -24.5153
-15.2947 -39.2203 -14.0683 713 394 -23.2019
-16.1417 -39.0451 -13.0389 714 393 -23.2019
-15.015 -38.894 -10.8713 717 391 -25.6613
-16.7852 -37.8255 -11.4357 718 402 -25.6613
-14.6842 -38.1634 -10.1359 720 398 -25.3833
-14.1441 -39.4004 -11.2888 720 399 -25.6613
-14.1282 -38.8553 -14.2003 712 395 -23.2019
6.34653 -39.6794 -9.6814 720 458 -25.4027
5.94345 -41.382 -8.02683 718 461 -25.7255
6.87373 -41.4806 -8.59542 715 452 -24.7015
5.99007 -41.1539 -10.5622 720 459 -25.7255
7.0488 -42.853 -8.88419 714 453 -23.3648
6.71138 -40.692 -9.88388 717 451 -25.7255
7.70816 -41.0533 -8.03603 718 462 -24.7015
7.68248 -40.622 -10.3838 720 460 -25.1404
-58.2872 -81.6758 -0.222819 85 1122 -25.6399
-55.7671 -81.2523 -1.29752 407 1113 -24.6113
-54.3847 -79.0984 -1.06186 410 1119 -24.6113
-56.415 -80.6351 -0.526415 406 1112 -24.6113
-56.1693 -79.3691 -0.0909948 408 1111 -24.6113
-55.2693 -78.4943 -0.731521 431 1110 -24.6113
-55.6274 -78.0046 -1.70342 410 1118 -25.1721
-54.1483 -76.7642 -0.186812 85 1116 -25.8974
62.3261 -26.6787 -0.534596 718 446 -27.283
61.9417 -25.7762 -0.0477451 715 437 -27.283
63.8152 -24.6385 -0.169402 720 443 -27.7368
61.5032 -25.1688 -0.836405 718 447 -27.7368
-57.4855 -81.1412 0.384324 80 1114 -25.1163
-57.2365 -81.9161 1.02391 85 1120 -25.5558
-57.9242 -80.3268 0.888704 85 1121 -25.1163
84.0494 -84.1826 5.78436 720 384 -24.9052
83.8759 -83.1986 4.35294 720 383 -24.9052
84.6283 -84.7765 4.221 720 385 -24.9235
84.5476 -83.8929 4.85849 717 376 -24.9235
85.9082 -82.3314 5.58507 718 386 -24.4987
86.8636 -84.0961 5.85047 714 378 -22.9435
89.0864 -84.6801 6.25206 714 381 -23.6973
88.1983 -83.7425 5.82554 713 379 -22.9435
88.5725 -82.6857 5.30054 712 380 -22.9435
86.3879 -83.1041 4.1008 718 387 -23.576
85.965 -83.3015 5.08605 715 377 -23.576
90.5024 -85.3704 4.89135 720 389 -24.2747
90.4079 -84.6592 5.71233 717 382 -24.2747
91.168 -84.9045 6.45824 720 388 -23.3131
90.6363 -83.6755 5.30055 720 390 -24.1999
-54.7251 -77.5861 0.393113 80 1109 -25.8252
-54.17 -77.8 1.26833 85 1115 -25.8252
-55.6913 -77.2485 0.874092 85 1117 -25.171
62.2905 -26.8955 4.15147 720 449 -26.6402
61.1986 -26.9146 4.23747 717 442 -26.6402
60.5451 -26.712 2.98814 714 441 -25.8176
60.8615 -26.1814 4.97539 720 450 -26.6027
60.8773 -27.9033 4.5624 720 448 -26.6048
61.2041 -26.9516 1.86497 713 439 -25.8176
62.1061 -27.7897 1.74037 712 440 -25.8176
60.9361 -26.0304 0.941193 714 438 -25.8176
63.1016 -24.9952 0.571354 717 436 -27.283
63.6678 -25.6468 1.23693 720 444 -25.8176
62.7321 -24.1262 1.12056 720 445 -26.552
-2.27438 -64.2899 8.24742 85 1148 -25.2554
-2.44606 -61.5471 7.42733 407 1141 -24.5649
-0.92471 -60.6722 9.68399 431 1138 -24.5649
-1.69946 -61.8878 9.60247 408 1139 -24.5649
-2.42826 -62.195 8.47668 406 1140 -24.5649
-0.0851403 -60.6193 8.86092 410 1146 -25.062
-4.00516 -63.6773 8.17809 85 1150 -25.156
-3.03072 -63.6435 8.61886 80 1142 -25.0608
-3.27526 -64.1251 9.59623 85 1149 -25.2274
-0.446396 -60.6126 10.6759 410 1147 -25.062
-2.27286 -59.1273 8.80921 85 1144 -25.4733
-1.94752 -59.4511 9.82179 80 1137 -25.0885
-2.7749 -59.7895 10.4046 85 1145 -25.0885
-1.58306 -58.5431 10.5368 85 1143 -26.125
-50.9389 -16.2855 9.34678 720 524 -25.3691
-50.3428 -16.4955 8.45672 717 517 -25.225
-50.8671 -17.2705 7.89514 720 523 -24.5448
-50.3145 -15.6018 7.83012 720 525 -25.225
-45.3891 -14.7558 10.2454 717 511 -26.279
-46.2451 -15.059 9.02055 715 512 -24.8178
-45.6111 -15.216 8.14613 718 521 -25.3724
-49.044 -16.9558 8.79981 714 516 -24.4903
-48.2617 -16.1834 9.56945 713 514 -24.1154
-48.6925 -15.3922 10.3929 712 515 -24.1154
-46.9791 -16.244 9.23973 714 513 -24.1154
-46.0298 -14.4052 11.0587 720 520 -26.279
-44.7954 -15.6093 10.5742 720 519 -26.279
-46.8519 -14.1821 8.79688 718 522 -24.8178
-44.712 -13.9253 10.0589 720 518 -26.1296
-0.764045 -87.9668 19.1066 713 484 -23.3393
-0.322047 -89.094 18.9255 712 485 -23.3393
-1.4924 -87.2243 18.2119 714 486 -23.6918
-1.4029 -88.7556 16.7554 720 495 -24.4118
-1.88422 -87.8005 16.9751 717 487 -24.4118
-1.58072 -87.119 16.1835 720 494 -23.816
-2.97046 -87.8822 16.9955 720 493 -23.5892
-0.573097 -89.1825 21.2842 718 491 -24.6557
-0.810098 -87.3523 20.2586 714 483 -23.3393
-79.0839 -80.1063 21.257 416 1428 -21.9697
-79.7744 -81.3645 21.0517 415 1426 -21.9697
-81.5396 -81.2258 21.2916 431 1425 -21.9697
-79.4161 -82.28 19.956 416 1427 -21.9697
76.492 -64.5191 17.4163 720 668 -26.8109
76.1321 -66.1961 17.839 720 669 -26.6105
75.2888 -64.7619 19.6302 718 671 -25.0597
76.9013 -65.8547 20.4671 714 663 -25.0597
76.3728 -64.8763 19.5511 715 662 -25.0597
77.7665 -65.5354 18.0481 720 670 -26.6105
76.701 -65.3136 18.1291 717 661 -26.6105
76.8078 -63.9054 19.784 718 672 -25.0597
16.7813 -35.8186 20.9958 717 616 -25.9194
16.3206 -35.9841 20.0221 720 623 -25.6493
18.7812 -36.0287 20.2471 718 627 -24.3611
18.2485 -34.3747 20.3007 718 626 -24.8979
18.2066 -35.321 20.8451 715 617 -24.3611
11.6531 -0.487373 16.0843 85 1213 -26.6683
54.8079 -3.50599 19.0201 786 1277 -20.4243
55.0007 -5.20021 19.988 788 1280 -20.4243
55.4658 -6.1395 17.8694 718 1279 -20.4243
53.4157 -6.46652 17.9735 714 1276 -20.4243
54.5232 -5.59907 17.9151 715 1271 -20.4243
52.4897 -6.03334 18.8175 713 1274 -20.4243
53.0312 -5.05015 19.5235 714 1273 -20.4243
54.3765 -4.78184 19.1969 715 1272 -20.4243
54.4448 -4.97962 17.0227 718 1278 -20.4243
51.3606 -6.48907 18.965 712 1275 -20.4243
-1.65629 -88.2389 23.3397 720 488 -25.3601
-0.591204 -88.1007 21.4468 715 482 -24.6557
-1.79481 -87.8122 22.3472 717 481 -25.7195
-2.72633 -88.2222 21.96 720 489 -24.84
-1.92475 -86.7353 22.4033 720 490 -25.7195
0.354723 -87.8814 21.9353 718 492 -25.7195
-79.3275 -82.2275 22.5809 431 1429 -21.9697
-80.6426 -83.0597 22.776 124 1423 -21.9697
-80.6694 -83.5549 23.7389 85 1431 -21.9697
-80.7089 -83.7779 21.9618 85 1430 -21.9697
-81.8104 -81.9683 22.5912 124 1424 -21.9697
-81.8049 -81.2947 23.4323 85 1433 -21.9697
-82.7589 -82.5012 22.5827 85 1432 -21.9697
38.634 -82.0619 23.4356 431 1152 -24.8315
38.5263 -81.2207 24.5736 408 1153 -24.8315
37.7909 -80.0655 24.6641 406 1154 -24.8315
37.4667 -79.2751 23.8128 407 1155 -24.8315
38.6775 -83.08 23.5743 410 1161 -25.5049
39.676 -81.5901 22.4855 80 1151 -25.5049
39.4829 -80.6116 21.9346 85 1157 -25.9525
40.6006 -81.6426 23.0137 85 1158 -25.9525
37.6849 -81.858 22.7813 410 1160 -24.8315
39.8522 -82.4655 21.8661 85 1159 -26.3757
38.3103 -79.7302 26.7093 85 1162 -25.2623
37.4193 -79.7112 26.0413 80 1156 -25.2623
36.5478 -79.0803 26.1052 85 1163 -25.8856
36.91 -80.6168 26.292 85 1164 -25.8279
76.5968 -65.7879 21.7824 713 664 -25.0597
77.3347 -66.2119 22.6786 712 665 -25.5412
74.8741 -64.916 23.2227 717 667 -26.8253
73.9351 -64.3722 23.1275 720 673 -26.8253
74.7951 -65.8176 23.8351 720 674 -26.8253
75.3358 -65.2966 21.9458 714 666 -25.0597
75.5809 -64.2133 23.6599 720 675 -26.8253
62.9268 -50.6906 26.8512 85 1129 -26.3309
61.1629 -50.0755 26.5241 85 1130 -24.592
62.6132 -49.5459 25.7261 85 1131 -26.3309
62.2933 -49.9061 26.6414 80 1123 -25.6816
63.3914 -48.3577 27.8648 410 1133 -25.1601
62.5138 -48.9924 27.9239 431 1124 -24.592
61.5533 -48.0449 27.9508 408 1125 -24.592
59.2846 -46.4213 28.112 85 1134 -25.5019
-22.0406 -35.9602 28.1829 712 530 -22.9543
16.7738 -36.7756 21.5238 720 625 -25.9194
20.5081 -36.4422 21.739 712 620 -23.6907
-19.6756 -35.1703 28.24 718 537 -24.2807
18.7458 -35.0834 22.1508 714 618 -23.6907
16.2198 -35.0808 21.5701 720 624 -25.9194
19.8958 -35.6605 22.4792 713 619 -23.6907
20.2144 -35.2918 23.7223 714 621 -24.0544
21.5822 -34.9651 23.9729 717 622 -24.7431
21.7762 -34.9375 25.0444 720 628 -24.1313
22.271 -35.6869 23.5323 720 629 -24.8668
21.8188 -33.9589 23.6283 720 630 -24.7431
89.1475 -33.207 22.8103 718 119 -20.6711
91.4676 -33.7704 22.5428 718 118 -20.6711
89.8428 -32.4727 23.2219 715 112 -20.6711
91.4246 -32.3904 26.3063 712 115 -20.6711
91.3021 -32.7392 22.8536 715 111 -20.6711
89.8694 -32.5 24.6355 714 113 -20.6711
91.1122 -32.4849 25.1227 713 114 -20.6711
91.9604 -32.517 24.0763 714 116 -20.6711
91.6529 -32.0615 22.0784 718 117 -20.6711
89.55 -31.4767 22.8811 718 120 -20.6711
52.8167 -22.886 27.4342 720 614 -24.1151
51.9866 -22.1643 26.0564 720 615 -24.0876
52.2987 -21.9921 27.087 717 607 -24.2966
51.1625 -21.6724 27.8982 714 606 -23.8366
52.9911 -21.1508 27.1051 720 613 -24.3893
-64.4502 -87.3746 32.1602 720 599 -23.8088
-64.9025 -87.0329 33.0875 717 592 -23.8021
-65.9321 -86.7552 32.8662 720 598 -23.3586
-64.9145 -87.8687 33.7864 720 600 -23.3586
-64.138 -85.9093 33.5119 714 591 -23.2488
-63.0231 -86.056 34.2402 713 589 -22.8873
-62.4329 -87.1189 34.4307 712 590 -22.8873
-61.0971 -84.0643 33.7642 718 597 -24.1391
-61.9409 -82.7118 35.6923 720 595 -25.1941
-62.6545 -84.8736 34.7448 714 588 -22.8873
-60.6089 -85.3459 34.8588 718 596 -24.7916
-61.301 -84.5094 34.7356 715 587 -24.1391
13.9346 -67.7696 33.6179 718 110 -20.6994
14.1342 -66.7045 33.7438 715 102 -20.6994
13.071 -65.8795 33.329 714 103 -20.6994
13.494 -64.7251 32.797 713 104 -20.6994
16.2246 -66.1897 33.3598 718 108 -20.6994
15.2541 -66.1704 32.865 715 101 -20.6994
14.3293 -66.4973 34.7989 718 109 -20.6994
14.8077 -64.8585 32.6188 714 106 -20.6994
15.3236 -66.7265 31.933 718 107 -20.6994
12.8088 -63.7455 32.535 712 105 -20.6994
60.1705 -49.532 29.151 407 1127 -24.592
62.6655 -49.4152 28.8394 410 1132 -24.592
60.3566 -48.3862 28.6692 406 1126 -24.592
59.7803 -46.7155 29.9169 85 1136 -25.6016
59.3776 -47.2147 29.0282 80 1128 -25.5019
58.3768 -47.5238 29.2543 85 1135 -25.6825
-24.7985 -36.1384 30.2002 720 540 -23.2986
-19.5733 -36.7301 29.0697 718 536 -25.369
-18.3415 -35.7292 30.8818 720 534 -25.369
-24.3301 -35.2581 29.7624 717 532 -23.9248
-22.9615 -35.2369 30.1589 714 531 -23.2763
-21.949 -35.5707 29.3484 713 529 -22.9543
-24.4462 -35.2898 28.6771 720 539 -23.9248
-24.8839 -34.3882 30.1239 720 538 -23.2986
-20.7654 -35.3998 29.9805 714 528 -22.9543
-18.5166 -34.089 30.263 720 535 -25.369
-18.4246 -35.1361 29.9696 717 526 -25.369
-19.6343 -35.6484 29.2161 715 527 -24.2807
-17.5266 -35.2686 29.3668 720 533 -25.1104
49.4776 -22.005 31.5977 717 601 -26.1416
49.2254 -21.9112 32.6527 720 608 -25.7907
48.5882 -22.3131 31.0467 720 610 -26.1416
50.1812 -22.8318 31.5357 720 609 -24.8642
51.2779 -21.5832 29.2478 713 604 -23.5278
52.0967 -22.1965 29.9348 712 605 -23.5278
49.3483 -19.8725 31.2313 718 612 -26.1416
50.061 -20.687 31.0951 715 602 -24.829
50.9753 -20.4407 31.6463 718 611 -25.6113
50.2956 -20.8061 29.7095 714 603 -23.5278
-60.1763 -82.9872 35.8518 720 593 -24.9155
-61.1594 -83.4543 35.844 717 586 -25.1941
-61.3731 -83.8921 36.8154 720 594 -25.1941
82.4912 -82.5417 42.6986 718 1288 -20.4332
42.6917 -59.5791 40.2243 720 553 -23.9897
43.8662 -59.2595 38.958 720 554 -23.9897
43.5225 -57.7579 40.2357 714 546 -23.7231
44.4227 -59.6187 40.5932 720 555 -24.4643
43.6495 -59.121 40.0132 717 547 -24.4643
43.2307 -57.8477 42.501 712 545 -23.3814
43.4699 -57.2689 41.4442 713 544 -23.3814
24.6323 -54.4429 42.3941 720 478 -23.8198
23.6124 -54.1945 40.9552 720 479 -24.4547
25.2349 -53.4641 41.0293 720 480 -24.4269
24.3562 -53.7423 41.6086 717 472 -24.4967
23.825 -51.2782 40.3559 712 470 -23.3521
23.8116 -52.6012 42.2345 714 471 -23.7284
22.396 -50.9481 42.0625 714 468 -23.3521
23.416 -51.5639 41.4838 713 469 -23.3521
42.5176 -53.9875 42.1529 720 550 -25.7934
45.0486 -54.5237 41.8664 718 552 -25.7934
44.3337 -55.2044 42.3231 715 542 -24.6952
43.8821 -56.0221 41.2617 714 543 -23.3814
20.0535 -49.6648 42.4474 720 475 -25.5475
20.934 -49.0384 42.3154 717 466 -25.5475
20.6152 -48.0795 41.9194 720 473 -25.3323
22.9135 -49.0965 41.3823 718 476 -24.5017
22.0193 -49.7217 41.4742 715 467 -23.9923
21.6609 -49.8725 40.4565 718 477 -24.5475
91.0008 -3.00022 39.9304 714 498 -25.5287
89.817 -2.23707 37.6645 720 505 -26.343
88.7943 -3.47939 38.4054 720 504 -26.7309
89.117 -2.44258 38.4772 717 496 -26.6103
88.2522 -1.79452 38.3324 720 503 -26.9802
92.8072 -4.97858 39.9689 720 510 -26.0715
91.7848 -2.83638 41.05 713 499 -25.5287
89.777 -2.27921 39.8681 715 497 -26.343
91.2998 -2.29214 42.0433 712 500 -25.5287
89.1438 -2.64564 40.6814 718 506 -26.343
89.9357 -1.2183 40.0612 718 507 -26.343
93.0776 -3.25955 41.1044 714 501 -26.4038
93.526 -4.17314 40.1137 717 502 -26.4602
93.6079 -3.67328 39.1474 720 508 -26.0715
94.4942 -4.61671 40.3392 720 509 -25.8763
13.5614 -85.9731 46.6206 714 123 -20.694
15.1581 -87.0331 47.4597 718 130 -20.694
16.2373 -85.9534 45.584 718 127 -20.694
14.8219 -86.0188 47.2404 715 122 -20.694
82.166 -86.4616 43.3728 712 1285 -20.4332
13.4823 -85.0329 45.6812 713 124 -20.694
12.4721 -84.6613 45.0965 712 125 -20.694
16.4018 -84.6054 46.7237 718 128 -20.694
15.6916 -85.2743 46.2374 715 121 -20.694
14.7144 -84.5586 45.5168 714 126 -20.694
14.7503 -85.4561 48.1722 718 129 -20.694
83.1713 -82.4506 44.3223 718 1289 -20.4332
80.2088 -82.4154 43.7257 786 1287 -20.4332
83.0188 -84.3484 43.4907 714 1286 -20.4332
80.9673 -84.6492 44.0382 714 1283 -20.4332
82.0579 -85.2617 43.5991 713 1284 -20.4332
81.1403 -83.2721 44.247 715 1282 -20.4332
81.1608 -83.1053 45.3252 788 1290 -20.4332
82.5363 -83.0406 43.6646 715 1281 -20.4332
42.608 -54.985 43.5794 720 549 -25.7934
43.5578 -53.5074 43.4792 720 548 -25.4799
44.9463 -55.7061 43.0832 718 551 -24.6952
43.2046 -54.3697 42.9102 717 541 -25.7934
21.3016 -48.7885 43.3048 720 474 -25.5475
19.1744 -36.5251 46.5239 714 93 -20.7068
16.5922 -36.4478 48.3661 718 98 -20.7068
17.6692 -36.5086 48.2129 715 91 -20.7068
18.1253 -36.9591 49.093 718 97 -20.7068
18.0444 -37.2483 46.9366 715 92 -20.7068
17.2702 -37.118 46.1783 718 99 -20.7068
18.2384 -38.3134 47.0686 718 100 -20.7068
19.2077 -35.2984 47.0378 713 94 -20.7068
19.9647 -34.3915 46.7216 712 95 -20.7068
18.2462 -35.2506 47.9566 714 96 -20.7068
-78.674 -15.9808 49.937 720 570 -23.9975
96.3914 -99.4086 53.0317 714 891 -23.7004
94.4229 -98.8413 52.6713 720 898 -23.9726
94.9021 -98.923 54.376 720 899 -24.4551
95.4762 -97.6154 53.2767 720 900 -23.9726
95.249 -98.6772 53.3652 717 892 -24.4551
2.34545 -79.265 56.4327 714 648 -23.3985
3.51968 -78.9298 54.8305 718 657 -25.6768
4.00074 -78.0322 56.2174 718 656 -24.0525
1.52107 -77.6438 54.5173 720 655 -25.6768
3.11878 -78.3762 55.6741 715 647 -24.0525
2.29764 -77.2264 55.1593 717 646 -25.6768
2.91294 -76.5444 54.5705 720 653 -25.3557
1.77709 -76.694 55.9578 720 654 -25.6768
12.9891 -40.9767 56.5238 718 252 -26.4519
13.0452 -38.9364 56.7785 714 243 -26.4519
11.8023 -37.0676 57.1058 712 245 -27.0469
85.1436 -38.5729 56.6558 714 233 -26.4416
86.3024 -39.2317 56.4884 713 231 -26.4416
86.9834 -39.2618 55.4676 712 232 -27.03
-78.7274 -15.3739 50.839 717 562 -24.7814
-79.7937 -15.266 51.0372 720 568 -24.9098
-78.6422 -16.0648 56.497 717 556 -25.6458
-79.636 -16.4766 56.3106 720 565 -25.6458
-78.8694 -14.2881 55.3003 718 567 -24.2272
-78.2973 -14.3888 50.6516 720 569 -24.9098
-78.1759 -15.9934 51.9925 714 561 -23.9561
-77.9151 -15.1927 53.005 713 559 -23.561
-77.9207 -16.8596 56.69 720 564 -25.6458
-78.2321 -15.8759 54.1091 714 558 -23.561
-78.2073 -15.1577 55.3477 715 557 -24.2272
-77.1923 -14.7954 55.5407 718 566 -25.2531
-77.5995 -13.9963 52.9422 712 560 -23.561
-87.1667 -88.4463 59.4178 712 1381 -15.7101
-90.3905 -87.486 57.3558 89 1384 -15.7101
-88.3572 -88.6522 59.1243 713 1380 -15.7101
-89.8571 -88.0184 58.1169 458 1378 -15.7101
-90.2019 -88.0674 59.3916 458 1377 -15.7101
-89.3459 -88.8142 60.1255 714 1382 -15.7101
-88.7164 -88.7384 57.7978 714 1379 -15.7101
-91.0525 -87.5919 59.8351 89 1383 -15.7101
-83.3684 -85.9316 63.5852 720 638 -25.717
-84.6474 -84.2419 64.2097 715 632 -24.9648
-85.3345 -84.3319 63.3717 718 642 -26.011
-83.3023 -84.8616 63.7897 717 631 -26.011
-82.8471 -84.3449 62.9419 720 640 -26.011
2.68499 -80.9455 59.9172 720 658 -24.6302
1.98243 -80.1243 59.7984 717 652 -24.6302
2.39144 -79.2573 60.3189 720 659 -24.6302
4.00618 -79.756 57.9737 712 650 -23.3985
1.06649 -80.4346 60.2962 720 660 -23.7807
2.8179 -79.6929 57.6303 713 649 -23.3985
1.76796 -79.8312 58.4307 714 651 -23.768
-79.2297 -66.6312 62.1905 712 1265 -20.3968
-79.8394 -64.4349 62.1464 714 1263 -20.3968
-79.6175 -65.6036 62.7369 713 1264 -20.3968
-79.9301 -65.465 64.0234 714 1266 -20.3968
-81.4709 -63.4034 62.7043 788 1270 -20.3968
-80.4201 -63.4708 62.9926 715 1262 -20.3968
-79.9514 -62.1843 63.0223 786 1267 -20.3968
10.5779 -41.4935 57.3693 720 248 -26.4519
12.0639 -40.2681 58.3757 716 241 -26.4519
13.164 -40.2391 57.3069 715 242 -26.4519
12.0481 -38.252 57.3046 713 244 -26.4519
11.351 -39.0991 58.0694 714 246 -26.4519
14.1537 -40.4081 57.7296 718 251 -26.4519
12.474 -40.1329 59.3788 719 250 -26.4519
11.1172 -41.4724 58.3125 717 240 -26.4519
11.6705 -42.405 58.4001 720 249 -27.0988
10.3707 -41.4283 59.1032 720 247 -27.0988
85.076 -40.4683 58.95 718 239 -26.4416
83.0137 -38.842 59.2483 720 236 -27.1012
83.2457 -38.7853 58.1844 717 227 -26.4416
84.7346 -38.5156 57.9994 716 228 -26.4416
85.6219 -39.5765 58.6405 715 229 -26.4416
84.9978 -37.5114 58.3359 719 237 -26.4416
82.952 -39.7345 57.746 720 235 -26.4416
82.6352 -38.0034 57.7367 720 234 -27.1012
86.5628 -39.8755 57.6301 714 230 -26.4416
86.1309 -39.1691 59.5121 718 238 -26.4416
-7.76719 -33.4439 62.0309 786 1297 -20.425
-6.42885 -33.2702 61.8811 715 1292 -20.425
-6.08979 -34.0864 61.2422 788 1300 -20.425
-4.73312 -31.743 62.0294 713 1294 -20.425
-5.83885 -32.0881 61.3806 714 1293 -20.425
-3.92871 -30.8795 61.6916 712 1295 -20.425
-6.37378 -33.0233 64.0465 718 1298 -20.425
-5.74342 -33.3884 63.238 715 1291 -20.425
-4.64513 -32.5349 63.0982 714 1296 -20.425
-5.44196 -34.4059 63.4762 718 1299 -20.425
-78.723 -15.5066 57.4284 720 563 -25.4237
94.7052 -2.13469 63.5228 715 1022 -24.0211
93.6236 -2.12196 63.3792 718 1031 -24.9393
95.0214 -4.23036 62.914 720 1030 -24.8839
95.3197 -3.22929 62.6107 717 1021 -24.9393
95.0484 -1.17158 63.1403 718 1032 -23.4511
95.0486 -3.10061 61.5602 720 1029 -24.8839
96.4075 -3.14573 62.6575 720 1028 -24.9393
-43.367 -86.7477 67.2923 719 263 -26.823
-43.0336 -87.7465 67.5757 716 254 -26.823
-43.422 -88.7705 66.5153 715 255 -26.823
-44.066 -89.7545 67.2735 714 256 -26.823
-44.4282 -89.3267 68.4664 713 257 -26.823