ITEM: TIMESTEP
0
ITEM: NUMBER OF ATOMS
5750
ITEM: BOX BOUNDS pp pp pp
-1.0000000000000000e+02 1.0000000000000000e+02
-1.0000000000000000e+02 1.0000000000000000e+02
-1.0000000000000000e+02 1.0000000000000000e+02
ITEM: ATOMS x y z type id c_my_entropy
21.2778 -81.4201 -96.1792 88 4455 -19.2247
21.1943 -82.6531 -94.9728 88 4457 -19.8756
20.9473 -80.1172 -93.4874 411 4451 -18.6903
18.7854 -78.8744 -93.4043 83 4454 -18.335
20.0464 -79.3396 -94.1741 409 4452 -18.6903
20.2002 -79.0236 -95.3518 410 4453 -18.6903
18.0824 -79.6838 -93.1586 88 4462 -18.335
22.6826 -82.2926 -95.7348 88 4456 nan
26.2942 -81.1709 -94.6431 2 202 nan
21.8088 -81.7859 -95.2808 83 4449 -20.017
26.6046 -81.7926 -95.8303 1 201 nan
26.1398 -83.0824 -96.1261 3 204 nan
22.1106 -80.6602 -94.1385 434 4450 -18.9841
27.3113 -83.6548 -97.0239 5 209 nan
26.9481 -83.4333 -97.2353 4 206 nan
26.7572 -83.8129 -97.4391 5 210 nan
27.1256 -81.9785 -97.9484 4 205 nan
26.7599 -81.7521 -98.1506 5 208 nan
27.4481 -81.8754 -98.2767 5 207 nan
27.378 -81.1629 -96.8172 3 203 nan
22.7654 -79.8176 -94.4463 413 4459 -19.0242
22.6962 -81.0089 -93.2661 413 4458 -19.4999
-87.2749 -73.865 -99.2193 2 1092 nan
18.2282 -78.2058 -94.0649 88 4461 -18.2936
86.248 -60.5356 -99.876 88 4923 -16.6096
86.3236 -62.262 -99.9897 88 4924 -16.6096
86.8098 -61.4189 -98.495 88 4922 -16.6096
86.8605 -61.3926 -99.5899 83 4916 -16.6096
91.4993 -63.7446 -99.0412 88 4919 -16.6285
89.2136 -62.1809 -99.9737 411 4913 -15.394
-8.41595 -52.0863 -94.6629 717 2588 -18.6865
-8.7349 -50.7589 -93.9717 716 2589 -18.6865
-9.31953 -50.0132 -95.0117 715 2590 -18.6865
-9.12477 -50.5502 -96.2131 714 2591 -18.6865
-8.52561 -51.7255 -96.0255 715 2593 -18.6865
-9.21344 -52.8007 -94.4526 720 2597 -18.6865
-9.43477 -50.0547 -97.2916 713 2592 -19.2053
-7.83091 -50.2523 -93.6335 719 2599 -18.6865
-9.41244 -50.8806 -93.1265 719 2598 -18.6865
-6.86548 -53.6355 -94.8393 721 2594 -19.2398
-7.04009 -52.6981 -94.3066 718 2587 -18.6865
-6.19787 -52.0394 -94.5352 721 2595 -18.6865
-6.97949 -52.9365 -93.2432 721 2596 -19.2398
-86.9315 -29.461 -92.9922 410 4425 -15.7358
-86.9895 -27.1896 -93.3334 411 4423 -15.3933
-88.3531 -27.1342 -93.8418 434 4422 -15.3933
-88.4466 -27.8724 -94.6721 413 4431 -15.3933
-88.7784 -25.6097 -94.2566 83 4421 -16.628
-89.8014 -25.4536 -94.6545 88 4428 -16.624
-88.1658 -25.1261 -95.0409 88 4427 -16.628
-88.7442 -24.8532 -93.4499 88 4429 -16.628
-89.0188 -27.5994 -93.0785 413 4430 -15.3933
-86.3718 -28.3689 -92.9366 409 4424 -15.3933
-84.1822 -27.8749 -93.1139 88 4434 -16.6089
-0.205281 -23.5252 -97.7106 413 4514 -15.3938
1.6508 -24.6584 -95.969 88 4513 -16.6282
1.62037 -23.5948 -96.2725 83 4505 -16.6282
0.878376 -23.2654 -97.693 434 4506 -15.3938
1.51724 -23.9587 -98.8027 411 4507 -15.3938
2.68771 -23.3122 -96.1998 88 4511 -16.6282
1.20918 -23.1216 -95.3581 88 4512 -16.6242
0.83262 -22.1788 -97.9391 413 4515 -15.3938
-29.4722 -15.9817 -99.6175 2 822 nan
-2.90933 -9.72332 -93.7797 2 492 nan
-2.11005 -7.59836 -92.9226 3 494 nan
-2.09584 -9.00132 -92.938 1 491 nan
-73.9958 -97.4257 -86.398 713 2501 -19.2032
-72.2253 -95.9877 -86.2954 715 2499 -18.6846
-72.9811 -96.9929 -85.8616 714 2500 -18.6846
-70.2024 -96.1953 -86.1018 719 2508 -18.6846
50.5303 -99.5517 -86.3385 721 2412 -19.248
35.2914 -89.9858 -90.7291 721 2530 -18.6781
35.4015 -87.2774 -89.1976 720 2532 -18.6781
35.5201 -89.3508 -89.8688 718 2522 -18.6781
34.9803 -89.7663 -89.0146 721 2529 -19.2295
33.8159 -87.641 -90.4034 715 2528 -18.6781
35.1791 -87.8568 -90.095 717 2523 -18.6781
33.6279 -86.7657 -91.3915 714 2526 -18.6781
32.5499 -86.3374 -91.7905 713 2527 -19.1984
34.8297 -86.4472 -91.865 715 2525 -18.6781
36.581 -89.485 -89.6501 721 2531 -19.2295
36.2009 -87.9534 -92.0221 719 2534 -18.6781
35.868 -87.2092 -91.2985 716 2524 -18.6781
36.7163 -86.5884 -91.01 719 2533 -18.6781
-55.4235 -79.6606 -86.8855 88 4741 -16.5985
-55.4062 -78.5985 -86.6324 83 4734 -16.5985
-54.5299 -76.4678 -87.6374 411 4731 -15.3843
-54.6841 -77.8428 -87.7774 409 4732 -15.3843
-54.2785 -78.4571 -88.7612 410 4733 -15.7266
-54.4115 -75.8118 -89.6156 413 4738 -15.3843
-53.8955 -75.6288 -88.6453 434 4730 -15.3843
-54.853 -73.5824 -88.0059 88 4737 -16.6189
-53.8711 -74.0546 -88.1993 83 4729 -16.6189
-52.8886 -76.0542 -88.8662 413 4739 -15.3843
-53.3206 -73.8196 -87.269 88 4735 -16.6189
-53.4215 -73.3267 -88.9046 88 4736 -16.614
-56.4606 -78.3278 -86.5 88 4740 -16.5985
18.9771 -78.2752 -92.5042 88 4460 -18.5777
-36.0388 -38.6384 -86.4046 721 2322 nan
-35.3548 -40.2536 -86.3617 721 2321 -23.0591
-35.3007 -39.2656 -85.8975 718 2314 nan
-34.314 -38.8739 -86.1474 721 2323 nan
-22.5295 -36.2918 -87.5257 5 100 nan
-23.072 -36.1992 -88.0032 5 99 nan
-22.9343 -36.0458 -87.5479 4 96 nan
-24.0308 -35.8911 -86.3578 4 95 nan
-24.3215 -36.2166 -86.2244 5 97 nan
-23.9057 -35.7426 -85.9325 5 98 nan
-84.5772 -29.2781 -92.1777 88 4433 -16.6089
-34.914 -35.5048 -86.8235 3 344 nan
-34.1659 -33.3378 -87.3341 4 345 nan
-34.8765 -34.6627 -87.9635 4 346 nan
-35.3031 -34.6715 -88.1647 5 350 nan
-34.6551 -34.9394 -88.2808 5 349 nan
-33.9754 -32.9878 -87.5857 5 347 nan
-34.3829 -33.0673 -87.0098 5 348 nan
-33.7389 -35.1293 -86.1547 1 341 nan
-33.1343 -33.9349 -86.5684 3 343 nan
-24.756 -34.7788 -86.8368 3 93 nan
-22.5976 -34.6882 -87.8111 3 94 nan
-23.7909 -34.0257 -87.5141 1 91 nan
-23.9995 -32.7226 -87.8614 2 92 nan
-84.9202 -28.2662 -92.4023 83 4426 -16.6089
-84.8213 -27.7219 -91.4555 88 4432 -16.6089
-14.7014 -14.6874 -87.4522 4 285 nan
-14.9901 -14.7085 -87.8243 5 287 nan
-14.9102 -15.5057 -86.0584 4 286 nan
-14.9717 -15.9769 -86.051 5 289 nan
-15.2281 -15.399 -85.727 5 290 nan
-13.4349 -15.1782 -87.8554 3 283 nan
-12.7993 -15.3799 -86.621 1 281 nan
-11.4403 -15.5706 -86.5298 2 282 nan
-14.6292 -14.2177 -87.4589 5 288 nan
-0.606096 -7.25699 -92.5653 5 499 nan
-1.20864 -9.62916 -92.0508 3 493 nan
-0.868832 -8.56476 -91.1796 4 495 nan
-0.920129 -7.30467 -92.2118 4 496 nan
-0.490036 -8.69595 -90.9313 5 497 nan
-1.18924 -8.61809 -90.8327 5 498 nan
-0.935639 -6.85092 -92.0844 5 500 nan
-72.4254 -97.4455 -84.738 715 2502 -18.6846
-71.7099 -96.0117 -83.4992 720 2506 -18.6846
-70.1443 -97.502 -83.7881 718 2496 -18.6846
-71.3377 -96.6579 -84.2957 717 2497 -18.6846
-71.0527 -95.8113 -85.538 716 2498 -18.6846
-70.4135 -98.0945 -82.9109 721 2503 -19.2386
-69.3142 -96.8636 -83.4807 721 2505 -19.2386
-70.8763 -94.7629 -85.2974 719 2507 -18.6846
-69.753 -98.1976 -84.5354 721 2504 -18.6846
-96.9368 -90.6023 -79.2156 719 2585 -18.6857
-96.0262 -92.0784 -78.8349 719 2586 -18.6857
-54.9077 -78.5558 -85.6567 88 4742 -16.5985
27.9612 -67.0938 -80.4617 88 5231 -17.1016
28.1485 -67.5436 -79.4679 83 5224 -17.1016
27.8373 -68.6 -79.507 88 5230 -17.4509
29.2406 -67.5603 -79.3618 88 5232 -17.4693
-38.4252 -39.5822 -82.4928 713 2319 -22.1875
-36.7653 -39.8876 -84.0264 715 2320 -22.4022
-36.6202 -38.1999 -82.7176 715 2317 -22.8015
-37.3689 -39.2541 -83.0246 714 2318 -22.4022
-35.8251 -37.179 -84.2976 719 2326 nan
-35.5628 -37.997 -83.6269 716 2316 -23.1807
-34.7436 -39.9702 -83.9077 720 2324 -22.8015
-34.6277 -37.7571 -83.1207 719 2325 -23.1807
-35.5074 -39.3388 -84.3644 717 2315 -23.1807
-33.1938 -35.9187 -85.1678 2 342 nan
95.108 -30.4228 -78.7767 1 441 nan
93.8182 -30.8082 -79.0577 2 442 nan
96.213 -31.1679 -79.2155 3 444 nan
96.7563 -28.7875 -78.6737 5 448 nan
97.668 -30.7671 -78.6132 5 450 nan
15.1364 -24.3579 -79.0668 88 4420 -16.6094
-43.2082 -14.3338 -80.3225 721 2543 -18.6869
-41.4599 -17.2545 -78.906 714 2539 -18.6869
-40.8131 -18.2289 -79.2759 713 2540 -19.2057
-41.2443 -15.9851 -79.2494 715 2541 -18.6869
-13.6215 -15.3751 -85.4841 3 284 nan
-43.2936 -13.2857 -78.9158 721 2544 -19.2401
-42.6346 -13.9543 -79.4725 718 2535 -18.6869
-41.8379 -13.3274 -79.8793 721 2542 -19.2401
-9.71142 -99.647 -74.2264 3 3976 nan
-7.34806 -99.8623 -74.0754 6 3980 nan
-7.38011 -99.93 -73.7852 7 3984 nan
-8.45051 -99.0959 -74.4245 4 3977 nan
-10.7516 -99.0004 -74.8209 5 3979 nan
-10.1203 -99.1652 -71.9296 7 3987 nan
-10.5908 -99.2072 -72.0564 7 3986 nan
-10.3977 -99.5138 -71.7242 7 3985 nan
-10.3438 -99.3604 -71.9752 6 3981 nan
-6.15158 -99.376 -74.2715 6 3982 nan
-5.91707 -98.2564 -73.5597 8 3990 nan
-5.9015 -99.0999 -75.5679 8 3988 nan
70.8653 -96.1885 -73.2001 88 5034 -16.6074
70.1978 -94.7423 -72.396 88 5036 -16.6074
70.6075 -95.746 -72.23 83 5028 -16.6074
69.7615 -96.3369 -71.8741 88 5035 -16.6074
75.7234 -94.6622 -72.0682 88 5031 -16.6257
-98.6072 -92.5156 -75.8124 713 2579 -19.2045
-94.5111 -90.7353 -77.1137 718 2574 -18.6857
-96.0512 -90.6211 -77.21 717 2575 -18.6857
-96.6786 -91.3072 -78.4253 716 2576 -18.6857
-97.819 -91.9155 -77.8695 715 2577 -18.6857
-97.7955 -91.9529 -76.5399 714 2578 -18.6857
-96.7226 -91.2674 -76.1467 715 2580 -18.6857
-94.1249 -90.2382 -76.2211 721 2581 -19.2392
-94.1516 -91.7675 -77.0851 721 2582 -18.6857
-94.0271 -90.252 -77.9643 721 2583 -19.2392
-96.3544 -89.5731 -77.1939 720 2584 -18.6857
37.8078 -86.6264 -75.1836 3 303 nan
36.5803 -85.841 -74.558 5 308 nan
36.9061 -86.0387 -74.2631 4 305 nan
36.6366 -86.3781 -74.0869 5 307 nan
-53.57 -85.4231 -75.2172 719 2339 -18.6861
-53.9245 -84.5362 -74.6918 716 2329 -18.6861
-54.349 -83.8398 -75.4148 719 2338 -18.6861
-54.8647 -84.9218 -73.7186 715 2330 -18.6861
-51.377 -84.264 -74.2667 718 2327 -18.6861
-51.1633 -83.9144 -75.2785 721 2336 -19.2386
-52.8206 -83.9004 -73.8443 717 2328 -18.6861
-52.9516 -82.8172 -73.839 720 2337 -18.6861
-51.1757 -85.3386 -74.2504 721 2335 -18.6861
-50.6362 -83.7906 -73.6183 721 2334 -19.2386
-54.9483 -85.2733 -71.4643 713 2332 -19.205
-54.3786 -84.89 -72.4808 714 2331 -18.6861
-53.1544 -84.3687 -72.5527 715 2333 -18.6861
11.2875 -81.219 -71.7536 3 24 nan
9.98505 -80.6634 -71.8029 4 26 nan
9.67861 -81.0172 -71.8597 5 30 nan
9.96792 -80.4972 -72.2477 5 29 nan
34.3686 -85.339 -71.8113 2 272 nan
37.9379 -85.1241 -73.3925 4 306 nan
38.734 -84.5677 -74.4169 3 304 nan
39.5608 -85.5405 -76.4611 2 302 nan
38.73 -85.5858 -75.3783 1 301 nan
38.2675 -85.3186 -73.1077 5 309 nan
37.8088 -84.7741 -73.1011 5 310 nan
27.5375 -66.8207 -78.2424 409 5222 -16.7699
25.5456 -65.7729 -77.2449 434 5220 -16.7699
24.5012 -65.8761 -77.5855 413 5229 -17.2041
26.2225 -66.4369 -78.336 411 5221 -16.7699
25.4669 -66.4559 -76.3778 413 5228 -16.7699
28.2105 -66.6415 -77.2305 410 5223 -16.7699
26.0475 -63.5507 -77.7894 88 5225 -17.6454
26.0326 -64.2526 -76.9379 83 5219 -17.6454
25.4693 -63.6891 -76.1741 88 5226 -17.9757
27.0606 -64.1477 -76.5455 88 5227 -17.1439
74.2965 -57.4343 -71.9066 718 2379 -18.6861
74.5034 -58.489 -72.1015 721 2386 -19.2387
56.806 -50.6713 -73.7312 716 2355 -18.8051
57.1228 -51.8471 -74.442 715 2356 -18.8051
55.6392 -50.9239 -75.669 715 2359 -18.8051
53.9201 -50.7833 -73.4372 721 2361 -18.8051
55.6922 -50.0231 -74.5769 717 2354 -18.8051
56.4985 -52.9398 -76.3199 713 2358 -19.0231
56.435 -51.9879 -75.5493 714 2357 -18.8051
56.5023 -50.8895 -72.7076 719 2365 -18.8051
57.6712 -50.0108 -73.6847 719 2364 -18.8051
75.5926 -56.5889 -71.9044 717 2380 -18.6861
75.3947 -55.098 -71.6222 716 2381 -18.6861
73.6152 -57.1075 -72.6941 721 2388 -19.2387
76.1229 -56.7073 -72.8506 720 2389 -18.6861
75.4328 -54.4931 -72.5281 719 2390 -18.6861
54.3327 -49.8609 -73.8438 718 2353 -18.8051
53.5493 -49.4209 -74.4704 721 2360 -18.8051
56.022 -49.0573 -74.9646 720 2363 -18.8051
54.4515 -49.205 -72.9854 721 2362 -19.2628
-78.5905 -37.1691 -73.6805 88 4364 -16.6092
-77.2861 -41.6261 -76.1024 83 4351 -16.6282
-78.3853 -41.7097 -76.199 88 4357 -16.6282
-76.9464 -42.3395 -76.8801 88 4358 -16.6242
-77.0991 -42.2084 -75.1802 88 4359 -16.6282
-76.6678 -40.1119 -76.1438 434 4352 -15.3937
-75.5554 -40.0736 -76.0868 413 4360 -15.3937
-76.8422 -39.5774 -77.1067 413 4361 -15.3937
-77.1942 -39.2904 -75.0629 411 4353 -15.3937
-76.8588 -37.9537 -74.8887 409 4354 -15.3937
-76.0904 -37.3602 -75.6414 410 4355 -15.7362
-77.4942 -37.2133 -73.6844 83 4356 -16.6092
-77.1771 -36.1699 -73.7315 88 4363 -16.6092
-77.1514 -37.5656 -72.7043 88 4362 -16.6092
-17.0026 -41.3061 -74.1951 715 2369 -18.6841
-18.1293 -40.699 -74.5579 714 2370 -18.6841
-15.0147 -40.7379 -74.398 719 2377 -18.6841
-19.2201 -41.2319 -74.734 713 2371 -19.2027
-15.9486 -40.4091 -73.9422 716 2368 -18.6841
-16.4746 -39.1096 -74.5553 717 2367 -18.6841
-17.851 -39.4026 -74.6912 715 2372 -18.6841
-16.0676 -38.9976 -75.5614 720 2376 -18.6841
-15.1329 -37.6549 -73.6143 721 2375 -19.2386
-16.2042 -37.8337 -73.7226 718 2366 -18.6841
-16.6141 -36.9433 -74.2046 721 2373 -19.2386
-15.8072 -40.3189 -72.8651 719 2378 -18.6841
-16.6254 -37.8736 -72.7145 721 2374 -18.6841
95.3872 -29.2637 -78.0371 3 443 nan
96.7675 -29.0789 -78.2984 4 445 nan
97.2583 -30.6277 -78.4263 4 446 nan
96.9336 -28.7672 -77.9861 5 447 nan
97.2593 -30.9221 -78.0532 5 449 nan
12.9291 -22.5067 -75.8855 434 4408 -15.3938
12.8675 -23.1371 -74.9685 413 4416 -15.3938
11.9239 -22.6932 -76.3304 413 4417 -15.3938
12.986 -25.1869 -76.871 410 4411 -15.7363
13.9324 -23.0962 -76.7608 411 4409 -15.3938
13.8852 -24.415 -77.1947 409 4410 -15.3938
15.0312 -24.9 -78.1187 83 4412 -16.6094
16.0123 -24.9547 -77.6323 88 4418 -16.6094
14.8085 -25.9273 -78.4126 88 4419 -16.6094
-43.3478 -15.7701 -76.9189 719 2546 -18.6869
-44.049 -15.998 -78.5343 719 2547 -18.6869
-43.1233 -16.0072 -77.9588 716 2537 -18.6869
-42.5109 -17.267 -78.0906 715 2538 -18.6869
-41.4769 -14.6373 -77.7553 720 2545 -18.6869
-42.0731 -15.0705 -78.5598 717 2536 -18.6869
13.2431 -20.9284 -75.5899 83 4407 -16.6282
12.5421 -20.3821 -74.9272 88 4414 -16.6242
13.2705 -20.2605 -76.4717 88 4413 -16.6282
14.2138 -20.7021 -75.1093 88 4415 -16.6282
39.2031 -2.46394 -73.6077 88 4623 -16.6283
40.7739 -3.12863 -73.7848 88 4625 -16.6283
40.5538 -1.43111 -73.8062 88 4624 -16.6243
40.4305 -2.30414 -71.6142 434 4618 -15.3938
40.2376 -2.32952 -73.2388 83 4617 -16.6283
-26.9391 -95.9213 -64.3214 5 538 nan
-26.7768 -96.6105 -64.382 5 537 nan
32.9984 -99.9222 -69.9145 721 3272 -19.2405
71.5282 -96.4426 -70.1109 410 5027 -15.734
72.9123 -95.1603 -71.4229 411 5025 -15.3916
71.7197 -95.8205 -71.153 409 5026 -15.3916
75.2996 -94.2921 -71.1152 83 5023 -16.6257
76.2121 -94.2081 -70.4912 88 5030 -16.622
74.0412 -95.1398 -70.5032 434 5024 -15.3916
74.2896 -96.1938 -70.2381 413 5032 -15.3916
73.6744 -94.7627 -69.5204 413 5033 -15.3916
75.1052 -93.2296 -71.3555 88 5029 -16.6257
49.2602 -87.9861 -69.7672 721 2568 -19.2392
50.3321 -87.7907 -69.8452 718 2561 -18.6858
50.5862 -87.8239 -70.9081 721 2569 -18.6858
50.831 -88.6377 -69.3709 721 2570 -19.2392
52.704 -86.6107 -70.0604 719 2573 -18.6858
50.7212 -86.4592 -69.1596 717 2562 -18.6858
50.4084 -86.4666 -68.1143 720 2571 -18.6858
52.2062 -86.0981 -69.2371 716 2563 -18.6858
52.7373 -86.3138 -68.31 719 2572 -18.6858
12.0387 -80.1446 -71.2537 1 21 nan
13.4124 -80.1307 -71.3174 2 22 nan
10.0631 -79.8335 -70.0695 5 28 nan
10.0353 -79.6674 -70.5138 4 25 nan
11.3159 -79.0857 -70.6838 3 23 nan
9.72836 -79.3199 -70.4283 5 27 nan
32.4007 -80.5366 -67.1344 715 3139 nan
32.0841 -80.1796 -68.4518 717 3134 nan
31.6668 -81.0628 -68.938 720 3143 nan
35.6881 -85.244 -69.7906 3 273 nan
35.1126 -85.5036 -68.3388 5 278 nan
35.2572 -85.0657 -68.4523 4 275 nan
35.6392 -85.0563 -68.1775 5 277 nan
33.8836 -83.7019 -68.3132 5 280 nan
34.5165 -84.948 -70.4994 1 271 nan
33.5173 -84.2506 -69.8022 3 274 nan
34.2056 -83.8338 -68.6336 4 276 nan
34.3486 -83.3987 -68.7568 5 279 nan
33.6902 -80.4935 -66.8655 714 3137 nan
34.324 -80.18 -67.9868 715 3136 nan
33.7041 -80.5575 -69.892 719 3144 nan
30.1099 -79.2487 -67.9875 721 3140 -22.6858
31.0663 -79.0053 -68.4758 718 3133 -22.6858
30.7843 -78.7434 -69.4925 721 3142 -22.9884
33.5936 -78.8406 -69.3696 719 3145 nan
33.4735 -79.8819 -69.0642 716 3135 nan
34.2233 -80.7455 -65.7895 713 3138 nan
50.6745 -83.1728 -70.2874 713 2566 -19.2046
50.1266 -85.329 -69.7662 715 2567 -18.6858
50.9614 -84.2979 -69.8919 714 2565 -18.6858
52.1644 -84.7187 -69.5108 715 2564 -18.6858
31.4732 -78.0933 -68.0209 721 3141 -22.6858
33.3298 -66.0784 -68.8751 5 259 nan
32.8296 -65.8846 -69.3404 5 260 nan
33.235 -65.7167 -69.1682 4 256 nan
32.9241 -64.6803 -68.2534 3 254 nan
35.1617 -64.3827 -69.0278 3 253 nan
34.3074 -64.6289 -70.3371 5 258 nan
34.4004 -64.9975 -70.0519 4 255 nan
34.6991 -65.2217 -70.3398 5 257 nan
34.1702 -64.0572 -68.0904 1 251 nan
34.4082 -63.1724 -67.0649 2 252 nan
73.7433 -57.3863 -70.9647 721 2387 -18.6861
76.4646 -54.8131 -70.754 715 2382 -18.6861
77.0466 -55.9052 -70.2661 714 2383 -18.6861
77.9279 -55.942 -69.4136 713 2384 -19.2049
76.4894 -56.9522 -70.8734 715 2385 -18.6861
74.4543 -54.9064 -71.1053 719 2391 -18.6861
-84.5449 -30.4454 -64.5966 88 4390 -16.6095
-82.9266 -31.0103 -64.34 88 4391 -16.6095
35.553 -33.4319 -69.2628 1 81 nan
34.9674 -31.4858 -70.8655 5 87 nan
35.6401 -31.5722 -70.654 5 88 nan
34.8565 -31.0035 -68.7005 5 90 nan
34.7914 -31.4067 -68.936 4 86 nan
34.3552 -31.5016 -68.7729 5 89 nan
35.5609 -32.4119 -68.2995 3 84 nan
35.1409 -33.0713 -70.5546 3 83 nan
35.201 -31.657 -70.4935 4 85 nan
35.9306 -34.7185 -68.9569 2 82 nan
38.46 -5.39515 -69.3814 88 4630 -16.6094
39.529 -5.14138 -68.0428 88 4629 -16.6094
39.5014 -5.15355 -69.134 83 4622 -16.6094
39.9817 -3.54748 -71.0035 411 4619 -15.3938
39.9087 -1.4582 -71.1092 413 4627 -15.3938
40.0053 -3.77551 -69.6334 409 4620 -15.3938
40.1378 -5.99918 -69.42 88 4628 -16.6094
40.4074 -2.93804 -68.8296 410 4621 -15.7363
41.4798 -2.12414 -71.284 413 4626 -15.3938
-28.889 -96.6731 -63.6985 5 540 nan
-30.4322 -99.7874 -62.9061 88 5395 nan
-32.0294 -99.8046 -62.2957 88 5394 nan
-30.9842 -99.9712 -61.9661 83 5387 nan
-30.5741 -98.0524 -60.7147 413 5396 nan
-30.4702 -99.158 -60.6428 434 5388 nan
-29.0688 -99.434 -60.3579 411 5389 nan
-31.079 -99.3536 -59.7288 413 5397 nan
-29.0012 -98.3465 -58.336 410 5391 -20.8838
-28.5613 -97.086 -63.2233 5 539 nan
-28.4821 -96.683 -63.4612 4 536 nan
-28.5578 -95.7179 -62.4267 3 534 nan
-27.2149 -95.6147 -62.0338 1 531 nan
-26.8481 -95.0159 -60.8522 2 532 nan
-27.0216 -96.33 -64.0927 4 535 nan
-26.262 -96.1564 -62.9095 3 533 nan
-28.425 -98.9909 -59.2083 409 5390 nan
-26.9265 -99.3534 -59.0495 83 5392 -21.2719
-26.5731 -98.9019 -58.1207 88 5399 -21.0866
-26.2616 -98.9498 -59.823 88 5398 nan
65.4426 -51.5363 -60.7018 88 4488 -16.6092
65.4186 -50.4824 -60.4005 83 4482 -16.6092
64.3663 -50.199 -60.4633 88 4489 -16.6092
65.8911 -50.221 -58.9477 409 4480 -15.3936
69.4203 -50.5606 -57.3434 83 4477 -16.6279
67.8134 -50.2522 -57.3434 434 4478 -15.3936
67.2319 -50.448 -58.6639 411 4479 -15.3936
69.7249 -51.5809 -57.6442 88 4485 -16.6279
-43.4428 -47.0991 -59.4127 2 412 nan
-43.2608 -44.1408 -57.4331 5 418 nan
-42.9726 -44.4424 -57.2076 4 415 nan
-43.6025 -45.6818 -57.4664 3 413 nan
-42.9463 -46.0833 -58.6359 1 411 nan
-41.2748 -48.7051 -57.3458 5 329 nan
-41.7434 -45.4356 -58.9463 3 414 nan
-41.177 -45.057 -57.5207 5 419 nan
-41.1356 -44.4224 -57.8319 5 420 nan
-41.4621 -44.7496 -57.7401 4 416 nan
2.76643 -43.7842 -57.416 88 4525 -16.6261
65.9133 -49.882 -61.1743 88 4490 -16.6092
65.0912 -49.8326 -58.1 410 4481 -15.736
70.0393 -49.9366 -58.0157 88 4483 -16.6279
-86.1066 -28.8819 -59.7831 83 4379 -16.6283
-86.4989 -29.8531 -59.4263 88 4385 -16.6283
-84.2244 -31.9056 -63.6239 88 4392 -16.6095
-84.6722 -28.9242 -60.5691 434 4380 -15.3939
-84.7422 -29.7529 -61.7643 411 4381 -15.3939
-83.654 -29.9841 -62.5962 409 4382 -15.3939
-82.5433 -29.5047 -62.3824 410 4383 -15.7364
-83.887 -30.8835 -63.8368 83 4384 -16.6095
-83.8228 -29.2845 -59.943 413 4389 -15.3939
-11.6496 -28.8145 -59.7587 2 332 nan
-11.545 -29.1308 -57.3548 3 333 nan
-86.969 -28.4904 -60.3552 88 4387 -16.6283
-86.1665 -28.2724 -58.859 88 4386 -16.6243
-84.2914 -27.922 -60.8738 413 4388 -15.3939
-11.1271 -28.4872 -58.5294 1 331 nan
-10.1489 -27.4918 -58.3849 3 334 nan
-9.30668 -28.0324 -57.1582 5 339 nan
-46.2132 -16.0838 -60.6221 714 2344 -18.6857
-45.4564 -16.9635 -61.0199 713 2345 -19.2045
-46.6544 -15.0439 -61.3246 715 2343 -18.6857
-48.6771 -15.3843 -59.3544 720 2350 -18.6857
-46.7445 -15.9886 -59.4038 715 2346 -18.6857
-47.6837 -14.9386 -59.2839 717 2341 -18.6857
-47.4023 -14.1343 -60.5548 716 2342 -18.6857
-48.3152 -13.8241 -61.0632 719 2351 -18.6857
-46.7925 -13.2545 -60.3492 719 2352 -18.6857
-47.5433 -14.1477 -57.9612 718 2340 -18.6857
-46.5516 -13.7102 -57.8183 721 2348 -18.6857
-48.2631 -13.3286 -57.9147 721 2349 -19.2393
-75.981 -89.999 -53.7306 4 225 nan
-75.6828 -90.0942 -54.0882 5 228 nan
-77.9526 -89.3472 -54.8264 3 224 nan
-75.7023 -90.146 -53.3799 5 227 nan
-77.5797 -90.2956 -53.8419 4 226 nan
-77.8795 -90.1905 -53.4885 5 229 nan
-77.7704 -90.7101 -53.9604 5 230 nan
-77.0717 -88.2897 -54.5538 1 221 nan
-77.2683 -87.0321 -55.0744 2 222 nan
-75.9786 -88.5822 -53.7242 3 223 nan
-68.5536 -78.6452 -51.0875 1 131 nan
-68.3558 -79.2913 -52.2854 2 132 nan
-69.5864 -77.7115 -50.9143 3 133 nan
68.3027 -74.6974 -53.5423 715 2476 -18.6825
69.5299 -74.0175 -53.3619 717 2471 -18.6825
70.3251 -74.7598 -53.4468 720 2480 -18.6825
69.8105 -73.255 -55.4049 721 2477 -19.2396
69.7516 -72.8759 -54.3819 718 2470 -18.6825
70.6951 -72.3605 -54.1919 721 2479 -19.2396
68.9642 -72.1173 -54.3648 721 2478 -18.6825
66.6707 -75.6595 -52.2628 713 2475 -19.2003
69.4139 -73.5702 -51.9039 716 2472 -18.6825
68.3782 -74.3938 -51.4232 715 2473 -18.6825
67.6866 -74.9837 -52.3956 714 2474 -18.6825
70.3411 -73.7106 -51.3485 719 2481 -18.6825
69.1062 -72.5273 -51.8257 719 2482 -18.6825
43.0396 -70.687 -51.1142 2 922 nan
46.1136 -68.4767 -51.8811 5 930 nan
45.8116 -68.7934 -52.0592 4 926 nan
44.8163 -69.0571 -51.0821 3 924 nan
44.2361 -70.2284 -51.5901 1 921 nan
45.5852 -68.4961 -52.349 5 929 nan
44.9254 -70.8999 -52.6089 3 923 nan
46.4429 -70.4267 -52.8883 5 927 nan
46.4192 -70.609 -52.2114 5 928 nan
46.2028 -70.3126 -52.5059 4 925 nan
74.5145 -68.2619 -53.4119 2 1262 nan
76.7032 -67.1454 -53.3366 3 1263 nan
75.3363 -67.183 -53.6762 1 1261 nan
77.0083 -65.7773 -53.5307 4 1265 nan
77.4743 -65.7394 -53.5454 5 1267 nan
74.8234 -66.0506 -54.3347 3 1264 nan
75.9988 -65.4038 -54.7621 4 1266 nan
76.0544 -65.5793 -55.1981 5 1269 nan
75.8817 -64.9635 -54.8927 5 1270 nan
76.9414 -65.6053 -53.1005 5 1268 nan
0.209676 -57.7617 -52.8267 2 32 nan
1.74052 -57.3502 -50.9876 3 34 nan
1.37138 -57.2133 -52.3345 1 31 nan
2.51528 -55.9956 -50.7175 5 39 nan
3.70882 -56.1187 -52.5381 5 37 nan
2.76114 -56.3745 -50.8657 4 36 nan
3.42047 -56.4436 -52.3544 4 35 nan
2.99271 -56.4563 -50.4631 5 40 nan
2.25195 -56.4914 -53.1546 3 33 nan
3.65716 -56.8268 -52.5064 5 38 nan
69.9634 -50.4477 -56.3835 88 4484 -16.6239
67.2318 -50.872 -56.6225 413 4486 -15.3936
-43.0829 -44.3135 -56.7691 5 417 nan
-40.0258 -48.8216 -56.3815 3 324 nan
-41.3575 -49.3781 -57.135 5 330 nan
-41.3224 -48.9487 -56.9416 4 326 nan
-40.1698 -47.6773 -55.5842 1 321 nan
-42.236 -48.4004 -55.7081 4 325 nan
-42.6865 -48.2675 -55.7437 5 327 nan
-42.2765 -48.6398 -55.3018 5 328 nan
-41.48 -47.2765 -55.2957 3 323 nan
-39.0943 -46.9573 -55.1173 2 322 nan
2.57713 -47.2909 -53.9413 410 4523 -15.7327
4.92152 -47.5137 -54.4651 83 4524 -16.6039
4.80099 -48.434 -53.8893 88 4531 -16.6039
5.32435 -47.8416 -55.4313 88 4532 -16.6039
5.69724 -46.9515 -53.9322 88 4530 -16.6039
3.54298 -46.8076 -54.5271 409 4522 -15.3903
2.44306 -43.568 -56.3801 83 4519 -16.6261
2.22942 -44.8632 -55.4031 434 4520 -15.3903
3.45961 -45.6304 -55.2589 411 4521 -15.3903
1.56797 -42.9118 -56.5601 88 4526 -16.6199
1.86998 -44.6081 -54.3796 413 4528 -15.3903
1.42074 -45.5544 -55.738 413 4529 -15.3903
67.5487 -49.2274 -56.993 413 4487 -15.3936
3.20266 -42.8303 -56.0593 88 4527 -16.6261
51.9916 -41.9154 -50.4495 4 146 nan
52.3293 -42.1046 -50.7249 5 149 nan
51.6277 -41.995 -50.7384 5 150 nan
-65.5038 -28.777 -53.873 8 3644 nan
55.4292 -34.2636 -52.1551 88 4554 -16.6275
53.1558 -33.1736 -51.0056 413 4556 -15.4004
55.5148 -32.5642 -52.3592 88 4555 -16.6319
55.4072 -33.3254 -51.5637 83 4547 -16.6319
54.1605 -33.1175 -50.5257 434 4548 -15.4004
56.4199 -33.3262 -51.1178 88 4553 -16.6319
-65.2071 -27.4703 -53.8214 6 3637 nan
-64.376 -27.2005 -54.8473 8 3645 nan
-66.3508 -26.7882 -54.0321 8 3643 nan
-64.4283 -27.3934 -52.6221 7 3639 nan
-64.6722 -27.2227 -52.6552 6 3635 nan
-64.8653 -27.3049 -52.4414 7 3638 nan
-61.2395 -26.4379 -51.0611 7 3640 nan
-61.4467 -26.2587 -51.4677 7 3642 nan
-63.7263 -25.708 -51.0915 3 3631 nan
-64.2854 -25.9261 -52.3466 4 3632 nan
-62.6854 -26.5408 -50.6725 5 3633 nan
-63.6049 -24.4089 -50.7118 5 3634 nan
-61.4402 -26.2442 -51.168 6 3636 nan
-61.365 -25.9636 -51.0865 7 3641 nan
-11.0384 -28.265 -56.3543 4 335 nan
-9.67306 -27.7417 -57.0739 4 336 nan
-11.0568 -28.4933 -55.9422 5 337 nan
-11.409 -27.9769 -56.2796 5 338 nan
-9.42154 -27.3671 -56.9372 5 340 nan
-47.7428 -14.778 -57.0916 721 2347 -19.2393
-4.22544 -13.3246 -52.2075 5 1707 nan
-4.00882 -12.8181 -52.661 5 1708 nan
-4.09507 -12.8696 -52.1947 4 1705 nan
-3.85659 -10.6906 -51.3722 3 1704 nan
-2.66146 -11.4271 -51.4114 1 1701 nan
-2.78586 -12.8038 -51.6486 3 1703 nan
-4.91054 -11.7628 -50.8484 5 1709 nan
-5.25648 -11.5202 -51.4293 5 1710 nan
-4.83749 -11.7156 -51.321 4 1706 nan
-1.43476 -10.8091 -51.2857 2 1702 nan
-37.9926 -4.39697 -53.4496 410 4607 -16.9461
-39.2096 -6.05535 -51.0009 88 4615 -17.5792
-39.8639 -4.69475 -51.8761 88 4614 -17.6696
-38.925 -4.37034 -50.4698 88 4616 -17.2821
-38.9757 -5.03076 -51.3407 83 4608 -17.2821
-37.7917 -4.87589 -52.3352 409 4606 -16.9461
-36.5526 -5.32139 -51.9215 411 4605 -16.9461
-35.5409 -5.92951 -53.6369 413 4612 -16.9461
-34.0646 -3.55949 -53.8099 88 4610 -18.1357
-35.6499 -3.11983 -53.7827 88 4611 -17.353
-34.9529 -3.69657 -53.169 83 4603 -17.8399
-34.7699 -3.00561 -52.3204 88 4609 -17.8399
-35.4167 -5.21757 -52.7986 434 4604 -16.9461
-34.6599 -5.78241 -52.2106 413 4613 -17.3643
97.79 -2.88652 -54.5362 4 425 nan
97.6383 -3.30217 -54.7095 5 428 nan
97.6495 -2.6173 -54.8961 5 427 nan
99.6352 -2.8879 -53.9378 5 430 nan
96.8916 -2.67846 -53.461 3 423 nan
99.2188 -2.74725 -53.7648 4 426 nan
99.3664 -2.3337 -53.5818 5 429 nan
98.954 -3.50406 -52.5955 3 424 nan
97.5896 -3.25023 -52.3877 1 421 nan
96.9496 -3.59807 -51.2205 2 422 nan
-67.7319 -78.8848 -49.9758 3 134 nan
-68.7398 -78.6845 -48.7714 5 139 nan
-22.2054 -81.4955 -46.8864 6 3620 nan
-21.7136 -83.5348 -47.2964 8 3629 nan
-22.4802 -81.5552 -46.9896 7 3623 nan
-22.0542 -80.1191 -46.9676 4 3617 nan
-22.2055 -81.5639 -46.5945 7 3624 nan
-22.9917 -79.3246 -46.3167 3 3616 nan
-23.3035 -79.6219 -44.9854 5 3618 nan
-22.4314 -79.1637 -44.0305 6 3621 nan
-22.5267 -79.2442 -43.7586 7 3625 nan
-22.4139 -78.8629 -44.0478 7 3626 nan
-22.1588 -79.2789 -44.0815 7 3627 nan
-21.3486 -82.2635 -47.5049 6 3622 nan
-21.3272 -82.0635 -48.8386 8 3628 nan
-20.0878 -82.1217 -47.0509 8 3630 nan
-3.27023 -82.993 -43.5666 8 3689 nan
-82.3794 -74.7923 -43.0851 3 123 nan
-69.1987 -77.0706 -49.7117 4 135 nan
-68.4906 -78.3105 -48.926 4 136 nan
-69.5685 -76.8252 -49.5525 5 137 nan
-68.948 -76.7016 -49.8756 5 138 nan
-68.209 -78.2673 -48.5504 5 140 nan
-22.9805 -78.0004 -46.6321 5 3619 nan
38.0586 -53.6881 -46.9741 720 2493 -18.6861
39.9684 -55.2464 -46.3442 721 2492 -19.2394
39.8434 -54.2732 -45.8661 718 2483 -18.6861
37.8532 -55.3132 -44.4457 719 2495 -18.6861
36.8154 -55.3481 -45.8861 719 2494 -18.6861
37.3682 -54.7004 -45.2056 716 2485 -18.6861
38.3706 -53.8034 -45.9349 717 2484 -18.6861
36.5304 -53.762 -44.5754 715 2486 -18.6861
40.2237 -54.3672 -44.8453 721 2491 -18.6861
40.5104 -53.5874 -46.3932 721 2490 -19.2394
38.1543 -52.5625 -45.2927 715 2489 -18.6861
37.0365 -52.5319 -44.5681 714 2487 -18.6861
36.5651 -51.5536 -43.9975 713 2488 -19.2049
80.1303 -51.408 -45.8526 3 53 nan
82.5295 -52.1129 -45.8379 5 59 nan
82.7963 -51.9256 -45.2067 5 60 nan
82.3959 -51.873 -45.45 4 56 nan
82.353 -50.5427 -45.9357 3 54 nan
80.6888 -52.4196 -44.7102 5 57 nan
80.8969 -52.0128 -44.8259 4 55 nan
80.7598 -51.7647 -44.4444 5 58 nan
81.0099 -50.4212 -46.3229 1 51 nan
53.2932 -43.0443 -47.4033 2 142 nan
80.5778 -49.3895 -47.1233 2 52 nan
45.6469 -36.2566 -43.0404 719 2520 -18.8155
51.9223 -42.8565 -49.3929 3 144 nan
52.2363 -40.5396 -49.6106 4 145 nan
51.902 -40.3562 -49.3269 5 148 nan
52.8202 -42.3098 -48.4647 1 141 nan
53.2026 -40.9751 -48.6707 3 143 nan
52.3871 -40.133 -49.7955 5 147 nan
54.0706 -33.9284 -49.7659 413 4557 -15.4004
52.749 -29.9546 -47.4265 88 4559 -16.62
53.3165 -31.454 -48.8561 409 4550 -15.4004
52.3719 -32.164 -48.5207 410 4551 -15.7438
53.3415 -29.2186 -48.8771 88 4558 -16.62
54.2374 -31.8434 -49.8242 411 4549 -15.4004
53.5115 -30.0639 -48.2004 83 4552 -16.62
54.4625 -29.9137 -47.6741 88 4560 -16.62
50.2289 -14.3378 -45.168 5 3604 nan
52.5449 -14.5031 -44.9182 4 3602 nan
55.2595 -14.4468 -45.63 8 3615 nan
55.6931 -14.5175 -43.5083 8 3614 nan
53.6556 -14.2884 -44.1155 6 3605 nan
53.5777 -14.3778 -43.8406 7 3608 nan
54.788 -14.8543 -44.436 6 3607 nan
54.7154 -16.2009 -44.4606 8 3613 nan
51.3528 -13.8954 -44.5411 3 3601 nan
53.6949 -13.9916 -44.1026 7 3609 nan
51.3472 -11.3837 -45.2119 7 3610 nan
51.5796 -11.7179 -45.4856 7 3612 nan
51.342 -11.6663 -45.3095 6 3606 nan
51.0907 -11.7146 -45.4695 7 3611 nan
51.3718 -12.529 -44.243 5 3603 nan
11.9928 -2.1618 -47.0243 714 2305 -18.6871
11.0108 -1.29458 -47.2561 715 2304 -18.6871
11.869 -3.14174 -47.9199 715 2307 -18.6871
10.0062 -4.15072 -49.1955 718 2301 -18.6871
10.8587 -2.89879 -48.8789 717 2302 -18.6871
11.351 -2.53753 -49.7831 720 2311 -18.6871
9.21419 -3.91744 -49.9093 721 2310 -19.2408
9.83755 -0.959293 -48.9389 719 2312 -18.6871
9.18949 -2.08755 -47.7306 719 2313 -18.6871
10.0967 -1.74317 -48.2272 716 2303 -18.6871
9.52416 -4.58298 -48.3147 721 2309 -18.6871
10.6053 -4.94141 -49.6526 721 2308 -19.2408
12.8506 -2.07659 -46.1515 713 2306 -19.2059
-87.534 -88.36 -40.6907 2 172 nan
-87.1215 -87.9066 -38.3541 3 173 nan
-87.0738 -88.7604 -39.4649 1 171 nan
-86.9821 -90.3348 -37.7568 5 179 nan
-85.8413 -88.3736 -37.549 5 178 nan
-86.5656 -90.0515 -39.2564 3 174 nan
-86.2601 -88.5785 -37.4562 4 175 nan
-86.5629 -90.1324 -37.8417 4 176 nan
-86.3208 -88.3907 -37.0305 5 177 nan
-86.2943 -90.4989 -37.718 5 180 nan
-3.56162 -86.3241 -40.0985 5 3678 nan
-2.24483 -86.8424 -39.6013 7 3685 nan
-2.35564 -86.5844 -39.4991 6 3681 nan
-2.39464 -86.6011 -39.2003 7 3686 nan
-2.16478 -86.3605 -39.5587 7 3687 nan