ITEM: TIMESTEP
63
ITEM: NUMBER OF ATOMS
1870
ITEM: BOX BOUNDS pp pp pp
-1.0000000000000000e+02 1.0000000000000000e+02
-1.0000000000000000e+02 1.0000000000000000e+02
-1.0000000000000000e+02 1.0000000000000000e+02
ITEM: ATOMS id type xs ys zs
1473 437 0.435874 0.00557679 0.0308873
1528 9 0.419311 0.163571 0.00515781
1529 9 0.414276 0.166362 0.00975561
1530 9 0.413917 0.161711 0.000699103
86 4 0.238919 0.178297 0.000846518
90 5 0.238403 0.178245 0.00315282
89 5 0.236719 0.178466 2.77872e-05
1527 8 0.414495 0.168122 0.00305991
1532 9 0.407583 0.16881 0.00346865
1533 9 0.419367 0.172996 0.00164005
1534 10 0.436247 0.167087 0.00256744
1221 719 0.696423 0.308362 0.0170811
1224 717 0.694251 0.313648 0.027212
1225 716 0.691393 0.317308 0.0312168
1226 718 0.691696 0.311315 0.0214566
1228 722 0.69679 0.31175 0.0126949
1229 722 0.694075 0.303921 0.0147144
1222 719 0.702656 0.307586 0.0220508
1223 718 0.700431 0.311169 0.0277359
1227 790 0.708468 0.310954 0.0205739
1230 792 0.704451 0.302648 0.0238527
1470 421 0.441054 0.00307103 0.0376098
1471 422 0.437378 0.00397097 0.0437156
1472 422 0.447574 0.00597965 0.0368019
216 716 0.319409 0.286225 0.0637796
217 715 0.325073 0.284187 0.060125
218 714 0.329338 0.280538 0.0637084
225 719 0.31482 0.28518 0.0610282
226 719 0.319706 0.291578 0.0647673
219 713 0.334729 0.278315 0.0618145
1518 10 0.987992 0.160208 0.0712113
1517 9 0.983991 0.168925 0.0859469
1511 8 0.987441 0.174858 0.0874042
1512 9 0.990082 0.174753 0.0809908
1513 9 0.98597 0.180335 0.0834141
1514 9 0.994191 0.175894 0.0870676
1515 9 0.99153 0.170943 0.0914238
1516 9 0.987054 0.1793 0.0927521
214 718 0.318361 0.285571 0.076827
215 717 0.319991 0.282005 0.0701508
220 715 0.326684 0.279795 0.0697605
221 721 0.318875 0.282183 0.0810826
222 721 0.321569 0.289863 0.0778898
223 721 0.313201 0.287345 0.0769053
224 720 0.316837 0.277592 0.0696133
748 8 0.474358 0.00561209 0.123553
1692 11 0.413759 0.0970313 0.122613
1693 13 0.41164 0.0911373 0.126146
1694 12 0.413344 0.0903677 0.132809
1695 12 0.404716 0.090875 0.126313
1696 9 0.41317 0.0850629 0.123169
1697 13 0.420085 0.0992889 0.119974
1699 12 0.42273 0.096542 0.114171
1698 12 0.425404 0.101119 0.124008
1700 9 0.417814 0.10539 0.117652
1522 9 0.462967 0.229675 0.133204
1524 9 0.461716 0.21955 0.132671
1341 717 0.590813 0.208487 0.130228
1542 10 0.74078 0.219608 0.104676
1541 9 0.754026 0.228212 0.112551
1535 8 0.760467 0.226263 0.110256
1536 9 0.758531 0.220369 0.107098
1537 9 0.762646 0.220633 0.1136
1538 9 0.763088 0.224935 0.104062
1539 9 0.760859 0.230991 0.105131
1540 9 0.766272 0.228858 0.113034
1081 83 0.117486 0.29419 0.118068
1087 88 0.115683 0.290667 0.121936
1088 88 0.1171 0.291103 0.113461
1089 88 0.122932 0.294121 0.118982
1082 434 0.113885 0.30153 0.118012
1083 411 0.115198 0.305441 0.124052
1084 409 0.110538 0.309897 0.126677
1085 410 0.105118 0.310919 0.123988
1086 83 0.112236 0.313588 0.133265
1090 413 0.115425 0.30488 0.113865
1091 413 0.108446 0.301209 0.116815
1092 88 0.1159 0.317615 0.132676
1691 10 0.434024 0.0885868 0.13894
11 1 0.464422 0.091506 0.144167
14 3 0.457624 0.092591 0.145396
16 4 0.456095 0.0977965 0.140848
19 5 0.455368 0.0965843 0.138962
20 5 0.454002 0.0987406 0.141436
12 2 0.467772 0.0859707 0.146544
13 3 0.467805 0.0965635 0.14069
21 1 0.550249 0.0954817 0.144817
22 2 0.546362 0.0931869 0.139629
24 3 0.549337 0.09327 0.151402
25 4 0.559081 0.0996515 0.149815
26 4 0.55307 0.0979691 0.155119
28 5 0.560714 0.0980469 0.149267
30 5 0.553426 0.0971263 0.157299
29 5 0.551428 0.0995682 0.155656
15 4 0.463168 0.101896 0.140858
17 5 0.463786 0.103492 0.139226
18 5 0.463901 0.103088 0.14275
23 3 0.555427 0.100089 0.143794
27 5 0.560514 0.101524 0.149989
1241 719 0.987043 0.125492 0.158298
1242 719 0.98056 0.12197 0.161414
1243 718 0.977416 0.119339 0.15564
1244 717 0.980718 0.120444 0.149942
1245 716 0.978813 0.119114 0.144264
1246 718 0.986599 0.123225 0.151596
1247 790 0.975478 0.125945 0.163795
1248 722 0.987327 0.131032 0.15805
1249 722 0.992127 0.124318 0.160198
1250 792 0.980867 0.117864 0.165142
1519 8 0.460602 0.224638 0.137252
1520 9 0.457268 0.230767 0.137254
1521 9 0.45402 0.224639 0.135177
1525 9 0.460549 0.223723 0.14427
1523 9 0.467223 0.226819 0.137417
1338 463 0.594093 0.220272 0.140069
1339 719 0.588917 0.216296 0.138108
1340 718 0.593019 0.211822 0.134904
1342 719 0.599555 0.211027 0.136795
1344 94 0.592867 0.225244 0.14194
1337 463 0.600015 0.217328 0.139336
1343 94 0.605022 0.219176 0.140429
1526 10 0.456712 0.238668 0.15331
1093 88 0.107646 0.316053 0.134916
1094 88 0.113663 0.310443 0.137521
1685 12 0.666509 0.325616 0.155401
1683 13 0.668802 0.332097 0.15628
1686 9 0.670796 0.331978 0.162923
1684 12 0.662936 0.335765 0.156212
1681 10 0.663364 0.357055 0.16065
1682 11 0.673912 0.333534 0.151429
1687 13 0.678799 0.338794 0.150711
1688 12 0.677097 0.345365 0.149361
1689 12 0.684533 0.338876 0.154625
1690 9 0.681357 0.336656 0.144658
1329 463 0.594755 0.118395 0.182221
1330 463 0.593391 0.111996 0.183431
1331 719 0.593233 0.110551 0.190088
1332 718 0.596213 0.116477 0.191872
1333 717 0.599458 0.116795 0.197088
1334 719 0.595685 0.122031 0.187902
1335 94 0.595233 0.121063 0.177497
1336 94 0.592433 0.107905 0.179958
415 7 0.272349 0.433752 0.19082
406 3 0.274492 0.447453 0.191581
407 4 0.276097 0.45063 0.185554
408 5 0.271699 0.441059 0.192796
409 5 0.274934 0.45142 0.197034
410 6 0.272265 0.449185 0.179997
411 6 0.273255 0.434835 0.190165
412 6 0.273402 0.452035 0.174253
413 7 0.270877 0.449459 0.180397
414 7 0.272392 0.447742 0.179834
416 7 0.274676 0.434496 0.190463
417 7 0.273024 0.434825 0.188723
418 8 0.27235 0.458696 0.174286
419 8 0.269054 0.449277 0.16997
420 8 0.279609 0.450903 0.171874
36 4 0.431747 0.23041 0.229504
39 5 0.432269 0.228621 0.228065
40 5 0.431007 0.23194 0.22786
34 3 0.426158 0.227868 0.232983
1234 717 0.832615 0.246917 0.2289
1235 716 0.826565 0.246365 0.228052
1231 719 0.843403 0.250995 0.227375
1236 718 0.836971 0.249767 0.224662
1238 722 0.843918 0.256514 0.227716
1239 722 0.847186 0.249882 0.223466
374 8 0.182062 0.363209 0.229476
375 8 0.171584 0.364051 0.232154
350 6 0.388394 0.0908845 0.264159
352 6 0.387674 0.0890369 0.257955
354 7 0.388673 0.0923128 0.264188
358 8 0.386937 0.0823795 0.257175
359 8 0.393321 0.0908651 0.254851
360 8 0.382546 0.0920965 0.254825
353 7 0.389565 0.0902005 0.264725
31 1 0.429078 0.225041 0.23869
32 2 0.425614 0.220685 0.242737
33 3 0.435732 0.226819 0.239963
35 4 0.436646 0.232415 0.235754
37 5 0.43896 0.232851 0.235537
38 5 0.436118 0.234194 0.237202
1232 719 0.842969 0.246613 0.234065
1233 718 0.836142 0.244742 0.23414
1237 790 0.843401 0.249818 0.240135
1240 792 0.845942 0.241983 0.234819
367 6 0.177822 0.363491 0.234653
373 8 0.178227 0.357648 0.237996
369 7 0.179678 0.369822 0.237311
361 3 0.178541 0.376143 0.247378
362 4 0.176181 0.370616 0.243787
363 5 0.182041 0.381896 0.245184
364 5 0.17806 0.375509 0.25409
365 6 0.179678 0.368647 0.238172
366 6 0.180935 0.386134 0.239806
368 7 0.181062 0.36844 0.238624
370 7 0.18199 0.387279 0.239821
371 7 0.17958 0.386748 0.239911
372 7 0.181062 0.385399 0.238551
341 7 0.754153 0.432728 0.263874
339 7 0.770639 0.429237 0.266534
344 8 0.779102 0.427114 0.260632
345 8 0.775143 0.418993 0.266634
201 718 0.548927 0.464089 0.263596
205 714 0.566624 0.465455 0.26536
207 715 0.561017 0.465923 0.261813
208 721 0.547463 0.465379 0.258493
209 721 0.549308 0.458641 0.263749
206 713 0.572288 0.464762 0.263119
336 6 0.755063 0.43385 0.263506
340 7 0.754215 0.434969 0.262835
342 7 0.756073 0.433393 0.262553
202 717 0.555415 0.467754 0.265699
211 720 0.554761 0.47313 0.265085
346 3 0.384475 0.0920808 0.275375
347 4 0.383343 0.0900149 0.268781
348 5 0.388568 0.0972571 0.277951
349 5 0.381702 0.0880773 0.280066
430 7 0.468925 0.0736334 0.298347
432 7 0.470554 0.07189 0.298912
426 6 0.469591 0.0728206 0.299495
351 6 0.389357 0.103865 0.275992
355 7 0.390357 0.104575 0.276951
356 7 0.388051 0.104579 0.276068
357 7 0.389891 0.103927 0.274633
1258 722 0.964083 0.263648 0.288177
1259 722 0.962823 0.264633 0.2798
1705 12 0.459339 0.294778 0.290708
1702 11 0.469551 0.298047 0.295001
1710 9 0.479318 0.295888 0.298347
1257 790 0.950786 0.266707 0.291799
1251 719 0.961402 0.266975 0.28463
1252 719 0.953824 0.269099 0.286111
1253 718 0.954551 0.275897 0.287958
1254 717 0.960824 0.278171 0.287732
1255 716 0.962812 0.283681 0.289557
1256 718 0.96458 0.273299 0.285049
1260 792 0.949819 0.268841 0.282272
1703 13 0.463082 0.300241 0.292752
1704 12 0.462646 0.304463 0.287288
1706 9 0.458931 0.303049 0.297546
1701 10 0.470986 0.324521 0.288201
1707 13 0.474883 0.301175 0.298725
1708 12 0.47863 0.306437 0.296246
41 1 0.588094 0.393438 0.284349
42 2 0.592805 0.389122 0.281814
43 3 0.583655 0.391524 0.289421
45 4 0.578847 0.396687 0.289269
47 5 0.577567 0.396613 0.291256
48 5 0.577229 0.395793 0.287811
44 3 0.587526 0.400043 0.282081
46 4 0.583526 0.403038 0.287061
49 5 0.585153 0.403921 0.288514
50 5 0.582675 0.405086 0.286244
331 3 0.762261 0.433298 0.274055
335 6 0.771576 0.429437 0.26763
338 7 0.772021 0.430836 0.267568
332 4 0.767721 0.428971 0.273331
337 6 0.77672 0.425548 0.266693
343 8 0.781672 0.426477 0.271175
210 721 0.544736 0.465511 0.266789
203 716 0.557975 0.46639 0.272793
204 715 0.564925 0.465862 0.271787
213 719 0.556069 0.461719 0.274857
333 5 0.758129 0.436376 0.269196
334 5 0.761049 0.435191 0.280432
212 719 0.556798 0.470459 0.276224
427 6 0.489986 0.0645336 0.307502
434 8 0.492769 0.0632594 0.301545
435 8 0.487634 0.0587058 0.309945
429 7 0.48441 0.0683992 0.305363
421 3 0.476347 0.0759881 0.309861
422 4 0.481209 0.0711971 0.311422
423 5 0.472804 0.0771679 0.303843
424 5 0.47535 0.0806049 0.314697
425 6 0.485322 0.0689367 0.306364
428 7 0.485936 0.0701413 0.305789
431 7 0.468523 0.072073 0.30022
433 8 0.494838 0.0667378 0.311635
1709 12 0.474389 0.302019 0.305601
1321 463 0.121844 0.0948662 0.347827
1324 718 0.113098 0.0965959 0.343384
1325 717 0.109317 0.0965887 0.338533
1326 719 0.117192 0.0912105 0.344458
1327 94 0.126678 0.0925021 0.34867
1322 463 0.119643 0.1009 0.349563
1323 719 0.113227 0.102036 0.347573
1328 94 0.122178 0.10491 0.352247
59 5 0.893667 0.177215 0.398119
60 5 0.895482 0.180115 0.399095
396 6 0.408253 0.28903 0.397708
400 7 0.407138 0.289748 0.396892
401 7 0.407883 0.287591 0.397839
402 7 0.409518 0.289164 0.396985
404 8 0.432807 0.29367 0.399908
4 3 0.598477 0.496402 0.377452
1 1 0.603901 0.494089 0.373668
2 2 0.603211 0.489074 0.369018
3 3 0.610062 0.497202 0.374876
8 5 0.609622 0.499021 0.382531
1675 12 0.0351086 0.0154204 0.433032
1680 9 0.0554534 0.0218419 0.431624
51 1 0.888091 0.173952 0.407813
52 2 0.882273 0.172711 0.411263
53 3 0.893539 0.169553 0.408027
54 3 0.888913 0.1797 0.403892
55 4 0.898775 0.17347 0.40537
56 4 0.894629 0.178133 0.400062
58 5 0.899724 0.174385 0.40732
57 5 0.900571 0.172057 0.404768
62 2 0.215089 0.296059 0.418402
399 7 0.423387 0.291226 0.403924
391 3 0.412865 0.290367 0.409547
392 4 0.419712 0.28894 0.40993
393 5 0.408764 0.291935 0.403988
394 5 0.409786 0.290862 0.415551
395 6 0.423921 0.29168 0.405198
397 6 0.430332 0.290525 0.405278
398 7 0.4237 0.293131 0.405269
405 8 0.431879 0.283988 0.404704
403 8 0.433465 0.292952 0.410734
462 7 0.546403 0.280652 0.422755
461 7 0.544304 0.280702 0.423963
453 5 0.548311 0.285517 0.428226
455 6 0.560816 0.277257 0.430699
456 6 0.545397 0.281519 0.423363
457 6 0.565491 0.272834 0.431701
458 7 0.561438 0.278515 0.430262
459 7 0.559967 0.276796 0.429609
460 7 0.54478 0.282419 0.422252
464 8 0.568597 0.272114 0.425811
70 5 0.204581 0.311485 0.42379
69 5 0.206759 0.31177 0.420992
68 5 0.213282 0.309613 0.430056
67 5 0.214525 0.312598 0.428574
66 4 0.206716 0.310734 0.423106
61 1 0.213043 0.301964 0.421272
63 3 0.217571 0.306375 0.424293
64 3 0.206314 0.30391 0.421351
65 4 0.213322 0.310661 0.427949
1671 10 0.0467923 0.0222835 0.461974
1672 11 0.0461395 0.0182268 0.434949
1673 13 0.0400457 0.0157835 0.437881
1674 12 0.0369623 0.0194661 0.442862
1676 9 0.0401596 0.00926117 0.44024
1677 13 0.0530037 0.0185053 0.437157
1678 12 0.0551266 0.0225288 0.442373
1679 12 0.0569838 0.012816 0.437147
465 8 0.563119 0.266787 0.43351
451 3 0.551554 0.283868 0.434302
452 4 0.55641 0.279022 0.435707
454 5 0.550252 0.288059 0.439445
463 8 0.570086 0.274735 0.436257
383 7 0.949074 0.0982945 0.497397
380 6 0.949123 0.0997614 0.497465
388 8 0.938185 0.0999289 0.499332
381 6 0.966675 0.099927 0.496124
385 7 0.967871 0.099071 0.495615
387 7 0.965748 0.10014 0.495016
382 6 0.943353 0.102151 0.495612
384 7 0.950136 0.100201 0.496514
389 8 0.942442 0.100021 0.489328
390 8 0.943139 0.10889 0.495535
386 7 0.967207 0.101232 0.496612
436 3 0.820344 0.35948 0.489054
437 4 0.822049 0.352893 0.487405
438 5 0.822364 0.365606 0.486131
439 5 0.816907 0.360095 0.494838
440 6 0.828328 0.351726 0.48479
442 6 0.830303 0.345708 0.483271
443 7 0.82927 0.352305 0.485758
444 7 0.828382 0.352551 0.483589
448 8 0.830842 0.341619 0.488606
450 8 0.826399 0.342674 0.478686
449 8 0.836399 0.346426 0.48059
445 7 0.823215 0.369059 0.479418
441 6 0.822745 0.367578 0.479494
446 7 0.8214 0.367482 0.478856
447 7 0.823706 0.366746 0.478776
376 3 0.957977 0.098425 0.505358
378 5 0.963481 0.0965892 0.5013
379 5 0.958481 0.096582 0.511842
377 4 0.951794 0.101236 0.503653
513 5 0.22254 0.394787 0.512434
516 6 0.227123 0.390866 0.515854
520 7 0.227207 0.389462 0.515187
521 7 0.226684 0.390685 0.517267
522 7 0.228446 0.391482 0.51581
511 3 0.220308 0.401406 0.513599
512 4 0.223938 0.407221 0.515016
514 5 0.213776 0.402466 0.512235
515 6 0.23025 0.40784 0.51229
518 7 0.230073 0.407644 0.510844
523 8 0.231229 0.418748 0.510539
519 7 0.230979 0.406683 0.512797
517 6 0.233861 0.41317 0.513267
525 8 0.235122 0.41441 0.519773
524 8 0.239721 0.411962 0.510258
1543 8 0.380199 0.453896 0.518756
1544 9 0.373698 0.452128 0.517256
1545 9 0.376817 0.449255 0.522512
1546 9 0.375978 0.458489 0.521572
1547 9 0.381712 0.4602 0.516216
1548 9 0.384098 0.455735 0.524204
1549 9 0.380022 0.453645 0.511854
1550 10 0.366907 0.45155 0.500986
1141 410 0.492006 0.194681 0.533504
1137 83 0.488804 0.18207 0.550773
1138 434 0.492309 0.18535 0.544155
1139 411 0.493333 0.192571 0.544701
1140 409 0.493019 0.196794 0.539175
1143 88 0.483627 0.183726 0.551811
1144 88 0.488274 0.176538 0.550926
1145 88 0.491261 0.183072 0.555616
1146 413 0.497339 0.183357 0.542918
1147 413 0.48969 0.183912 0.539444
663 5 0.886282 0.18489 0.559582
666 6 0.886522 0.179103 0.555769
669 7 0.89892 0.182066 0.566329
670 7 0.886074 0.179421 0.554313
671 7 0.88559 0.178083 0.556332
672 7 0.887885 0.178579 0.555735
661 3 0.88765 0.186004 0.566441
674 8 0.909338 0.180556 0.566319
1142 83 0.493867 0.204409 0.54027
1148 88 0.499024 0.20595 0.541286
1149 88 0.492547 0.206835 0.535554
1150 88 0.490524 0.206729 0.543942
1279 722 0.799511 0.444083 0.559898
1271 719 0.803147 0.448163 0.56088
1272 719 0.803795 0.454393 0.55589
1273 718 0.810728 0.454387 0.554439
1274 717 0.814167 0.449489 0.5574
1275 716 0.820254 0.448712 0.557342
1276 718 0.809687 0.445472 0.560371
1277 790 0.803214 0.460749 0.558451
1278 722 0.802229 0.449038 0.566286
1280 792 0.801084 0.454672 0.551051
487 6 0.486797 0.0637669 0.581715
488 7 0.480191 0.066201 0.582814
493 8 0.486878 0.0608461 0.575637
494 8 0.487027 0.0589254 0.586338
1568 9 0.0219216 0.0983038 0.591052
1569 9 0.0286221 0.0996427 0.589134
1574 10 0.00705551 0.0903826 0.596009
495 8 0.492403 0.0674587 0.582344
481 3 0.47366 0.0759784 0.58079
482 4 0.479656 0.072704 0.579261
483 5 0.470213 0.0766217 0.586944
484 5 0.470266 0.078236 0.575399
485 6 0.481341 0.0671087 0.582933
486 6 0.472478 0.0782523 0.593294
489 7 0.48138 0.0675764 0.584313
490 7 0.471274 0.0782975 0.594279
491 7 0.473117 0.0795992 0.593276
492 7 0.473427 0.0772468 0.593763
1567 8 0.0256907 0.103092 0.594204
1570 9 0.0234573 0.106441 0.588876
1571 9 0.0224349 0.108428 0.597226
1572 9 0.0303124 0.10816 0.593296
1573 9 0.0200796 0.101179 0.597814
1581 9 0.112543 0.130952 0.577089
1582 10 0.104319 0.119195 0.567409
1576 9 0.105052 0.134163 0.576515
1575 8 0.110431 0.137022 0.57969
1577 9 0.104301 0.13859 0.582302
1578 9 0.108569 0.141393 0.574869
1579 9 0.116118 0.138383 0.575902
1580 9 0.112658 0.142938 0.582571
665 6 0.899161 0.18304 0.567387
668 7 0.899453 0.184326 0.566737
662 4 0.893008 0.183862 0.570405
664 5 0.883567 0.190472 0.569446
675 8 0.903621 0.175184 0.573811
667 6 0.904387 0.181163 0.570789
673 8 0.906327 0.185636 0.575448
627 7 0.612509 0.312491 0.568058
616 3 0.615347 0.317423 0.579797
617 4 0.622044 0.315797 0.581028
618 5 0.611634 0.317374 0.573766
619 5 0.61207 0.320013 0.585107
620 6 0.626657 0.316888 0.576011
621 6 0.611205 0.312663 0.568694
622 6 0.632973 0.315547 0.576863
623 7 0.626514 0.318306 0.575651
624 7 0.626161 0.316105 0.574885
625 7 0.610187 0.313148 0.567622
626 7 0.610723 0.311365 0.569246
628 8 0.635931 0.319352 0.581581
629 8 0.635922 0.316872 0.570996
630 8 0.634168 0.309076 0.578333
614 8 0.786016 0.383918 0.599662
1151 83 0.699449 0.0920843 0.628955
1152 434 0.691567 0.0923428 0.626799
1153 411 0.690524 0.0945957 0.61992
1154 409 0.684897 0.0982195 0.618008
1155 410 0.680391 0.0995798 0.621945
1160 413 0.688891 0.0874879 0.62706
1161 413 0.688463 0.0951776 0.630466
1162 88 0.683159 0.0967338 0.607098
1157 88 0.702053 0.0969648 0.629107
1159 88 0.702806 0.089161 0.625685
1110 434 0.180118 0.132097 0.612156
1116 88 0.180931 0.131307 0.600388
1117 88 0.172774 0.131722 0.603014
1118 413 0.180744 0.12675 0.613503
1156 83 0.684384 0.100683 0.610688
1163 88 0.680176 0.104164 0.610488
1164 88 0.688618 0.103605 0.608794
1119 413 0.185338 0.133797 0.613142
1109 83 0.17781 0.133489 0.604438
1111 411 0.175366 0.134639 0.6171
1112 409 0.177387 0.137041 0.623312
1113 410 0.183269 0.137037 0.625063
1114 83 0.172024 0.13991 0.6281
1115 88 0.177565 0.138808 0.602931
1120 88 0.168887 0.136095 0.630468
1121 88 0.174702 0.14232 0.632209
1122 88 0.168831 0.143881 0.626081
1430 91 0.308322 0.232082 0.627823
1423 130 0.309062 0.234355 0.632723
1431 91 0.313443 0.23758 0.632341
1136 88 0.805336 0.26381 0.629075
530 6 0.385204 0.298185 0.632083
534 7 0.384542 0.297737 0.630864
539 8 0.393945 0.293937 0.628017
533 7 0.385773 0.299511 0.631805
536 7 0.369463 0.300807 0.623412
528 5 0.372463 0.305632 0.628422
531 6 0.370544 0.301749 0.623005
535 7 0.369993 0.302669 0.621878
537 7 0.371692 0.301009 0.622487
111 1 0.945506 0.329528 0.623332
112 2 0.948771 0.32357 0.622261
114 3 0.939008 0.329783 0.625935
113 3 0.94847 0.335691 0.621809
115 4 0.944267 0.340271 0.62515
116 4 0.93706 0.336424 0.624548
117 5 0.944677 0.342448 0.624322
118 5 0.945361 0.340503 0.627222
119 5 0.935973 0.336179 0.622475
120 5 0.93516 0.336961 0.625847
601 3 0.784949 0.385762 0.621896
602 4 0.784338 0.381308 0.616527
603 5 0.783572 0.392697 0.622254
604 5 0.788296 0.383244 0.6272
605 6 0.785401 0.383769 0.610168
606 6 0.778079 0.396348 0.620115
607 6 0.785106 0.379896 0.604939
608 7 0.786723 0.384409 0.610209
609 7 0.784413 0.384831 0.610018
610 7 0.778277 0.397849 0.620478
611 7 0.776845 0.395864 0.6208
612 7 0.777929 0.396235 0.618667
613 8 0.789915 0.375169 0.604814
615 8 0.779141 0.376846 0.604182
586 3 0.17667 0.0565247 0.653701
587 4 0.176433 0.0569035 0.660687
588 5 0.177751 0.06158 0.648861
589 5 0.174884 0.0505213 0.65117
590 6 0.174122 0.0627382 0.663561
593 7 0.172798 0.0629696 0.662966
596 7 0.183826 0.066093 0.64855
594 7 0.175012 0.063773 0.663048
591 6 0.182451 0.0666696 0.648544
595 7 0.182262 0.0674681 0.647222
597 7 0.18228 0.0675821 0.649671
1158 88 0.700679 0.089991 0.633956
102 2 0.576683 0.165015 0.665849
106 4 0.563446 0.176113 0.662821
109 5 0.564565 0.177461 0.661249
110 5 0.5613 0.176177 0.661831
104 3 0.566358 0.169796 0.661629
101 1 0.571627 0.16966 0.666245
1427 422 0.296059 0.232483 0.643784
1424 130 0.310208 0.229018 0.63809
1425 437 0.308982 0.232205 0.644891
1432 91 0.306645 0.224943 0.637389
1433 91 0.315213 0.226877 0.637767
1426 421 0.301699 0.2369 0.643214
1428 422 0.301901 0.243052 0.646918
1429 437 0.302995 0.238591 0.634627
1131 88 0.798646 0.240224 0.638851
1123 83 0.803632 0.241181 0.641024
1124 434 0.80486 0.24861 0.644211
1125 411 0.803361 0.254042 0.639547
1126 409 0.806846 0.260068 0.639626
1127 410 0.811283 0.261224 0.643702
1128 83 0.805127 0.265422 0.634309
1129 88 0.806945 0.239805 0.636812
1130 88 0.804224 0.236807 0.644403
1132 413 0.801806 0.249789 0.648692
1133 413 0.809912 0.249109 0.646524
527 4 0.380052 0.299293 0.63654
532 6 0.390046 0.294053 0.633462
538 8 0.393841 0.295984 0.638693
540 8 0.38795 0.287747 0.634606
1134 88 0.800395 0.268026 0.635221
1135 88 0.808979 0.269284 0.634664
526 3 0.375045 0.303856 0.634773
529 5 0.372721 0.307576 0.639913
1729 12 0.644187 0.458067 0.664235
1730 9 0.63457 0.462141 0.662065
592 6 0.173675 0.0633874 0.670025
598 8 0.169192 0.0592185 0.672854
600 8 0.179565 0.0626133 0.673217
1281 719 0.946199 0.0574161 0.699311
1288 722 0.942381 0.05773 0.695292
1289 722 0.950846 0.0579069 0.696311
599 8 0.171607 0.0696697 0.671081
105 4 0.564812 0.176914 0.670858
107 5 0.564653 0.178961 0.67203
108 5 0.563704 0.175557 0.672429
103 3 0.571432 0.174506 0.6713
472 6 0.630688 0.232018 0.686314
480 8 0.627352 0.226367 0.687863
479 8 0.634826 0.230606 0.68124
543 5 0.730466 0.225285 0.676773
545 6 0.731579 0.210212 0.675913
546 6 0.727056 0.225816 0.682784
547 6 0.732216 0.203771 0.676629
548 7 0.730886 0.210483 0.674645
549 7 0.73073 0.21072 0.676986
550 7 0.725941 0.226894 0.682657
551 7 0.727992 0.226242 0.683865
552 7 0.726436 0.224541 0.683127
554 8 0.725976 0.20134 0.676736
541 3 0.735966 0.221232 0.674914
542 4 0.73707 0.214396 0.675948
544 5 0.740249 0.224104 0.67055
553 8 0.735521 0.200814 0.671548
555 8 0.735206 0.201983 0.682402
474 7 0.626169 0.236359 0.682943
466 3 0.617817 0.244522 0.685481
467 4 0.621712 0.239308 0.688063
468 5 0.616035 0.246059 0.678801
469 5 0.616007 0.249165 0.690042
470 6 0.626827 0.236804 0.684166
471 6 0.613709 0.242045 0.673645
473 7 0.627657 0.237965 0.683815
475 7 0.613425 0.242923 0.672393
476 7 0.612436 0.241383 0.674052
477 7 0.614713 0.241043 0.673298
478 8 0.634445 0.233764 0.691636
1723 13 0.633072 0.448662 0.673474
1725 12 0.62881 0.443639 0.671286
1724 12 0.630392 0.450221 0.679657
1722 11 0.633492 0.453816 0.668478
1721 10 0.642636 0.46406 0.692769
1726 9 0.63889 0.445137 0.67485
1727 13 0.638063 0.459265 0.66728
1728 12 0.63882 0.464603 0.671604
496 3 0.945523 0.498176 0.685489
497 4 0.948301 0.495656 0.6914
500 6 0.954882 0.497182 0.692817
501 6 0.952958 0.495953 0.675357
502 6 0.957756 0.495079 0.698269
504 7 0.955627 0.496674 0.691672
505 7 0.953263 0.496731 0.674044
506 7 0.952349 0.494642 0.674992
507 7 0.954211 0.495746 0.676079
509 8 0.964111 0.49716 0.697888
510 8 0.957839 0.488361 0.698842
503 7 0.954961 0.498649 0.692773
498 5 0.948537 0.499619 0.679244
1598 10 0.755006 0.0302296 0.72678
1591 8 0.776804 0.0273382 0.727869
1592 9 0.771489 0.0238609 0.724972
1593 9 0.775452 0.0207277 0.729479
1594 9 0.777115 0.0265137 0.721052
1596 9 0.783677 0.0266828 0.728328
1597 9 0.772106 0.0311662 0.731451
1595 9 0.776697 0.0332218 0.724215
1282 719 0.945205 0.0615721 0.706084
1283 718 0.943598 0.0564568 0.710709
1284 717 0.943595 0.0502961 0.708133
1285 716 0.941896 0.0451244 0.710962
1286 718 0.945877 0.0508024 0.701841
1287 790 0.939603 0.0655091 0.706738
1290 792 0.94924 0.0646432 0.70835
130 5 0.569382 0.0816374 0.730764
129 5 0.569416 0.0789488 0.728435
123 3 0.580187 0.0728053 0.730197
125 4 0.578879 0.0797385 0.730019
126 4 0.570691 0.0797373 0.73025
127 5 0.580154 0.0807234 0.728288
128 5 0.580155 0.0805131 0.731839
91 1 0.598743 0.325985 0.7185
92 2 0.598849 0.326497 0.711644
94 3 0.59274 0.325474 0.722078
96 4 0.594818 0.326681 0.728714
99 5 0.594492 0.329004 0.728905
100 5 0.593112 0.325991 0.730199
93 3 0.604628 0.325761 0.722293
95 4 0.602339 0.323437 0.728551
97 5 0.603995 0.323853 0.730184
98 5 0.602665 0.321116 0.728344
1713 13 0.132225 0.443812 0.722014
1715 12 0.126556 0.440644 0.71959
1714 12 0.130265 0.445719 0.728368
1712 11 0.134354 0.448849 0.717347
1716 9 0.136524 0.438453 0.722974
1717 13 0.140398 0.452708 0.716554
1718 12 0.142484 0.45746 0.721133
1719 12 0.146084 0.449859 0.713767
1720 9 0.138147 0.456593 0.711302
1855 12 0.665965 0.49059 0.714818
1860 9 0.679635 0.499075 0.700707
1852 11 0.673787 0.496998 0.709216
1853 13 0.670055 0.496157 0.71531
1856 9 0.673741 0.494611 0.720973
1859 12 0.685888 0.499405 0.709402
508 8 0.955067 0.497632 0.703902
122 2 0.574966 0.0640252 0.736755
121 1 0.5749 0.0703644 0.734092
124 3 0.569525 0.0747443 0.735099
1744 12 0.896127 0.223055 0.756093
1742 11 0.906002 0.225595 0.762773
1743 13 0.902192 0.221021 0.758735
1745 12 0.90579 0.21937 0.753044
1746 9 0.900977 0.214768 0.761484
561 6 0.096032 0.428091 0.753738
565 7 0.0956249 0.426617 0.753484
566 7 0.0962473 0.428737 0.752422
567 7 0.0949531 0.428762 0.754454
558 5 0.101853 0.428279 0.757449
559 5 0.111359 0.431582 0.76262
1551 8 0.798173 0.421922 0.753231
1552 9 0.799752 0.415426 0.75119
1555 9 0.79645 0.420058 0.759766
1557 9 0.791947 0.423224 0.750224
1558 10 0.784403 0.407557 0.745576
1553 9 0.801644 0.421141 0.747445
1554 9 0.800936 0.417308 0.757506
1556 9 0.801767 0.427673 0.753883
556 3 0.10554 0.433775 0.759922
557 4 0.102427 0.438947 0.763504
1711 10 0.145001 0.454308 0.742049
1494 422 0.419938 0.494022 0.764182
646 3 0.488653 0.0955677 0.795685
648 5 0.489812 0.0966176 0.788777
649 5 0.482191 0.096128 0.79758
651 6 0.494211 0.0935501 0.784381
655 7 0.494018 0.0941419 0.782955
656 7 0.493932 0.0920862 0.78432
657 7 0.495589 0.0937857 0.784801
654 7 0.499776 0.0978259 0.799376
1741 10 0.879562 0.227488 0.769831
1748 12 0.900183 0.232048 0.771631
1747 13 0.905386 0.227992 0.76955
1749 12 0.90721 0.223971 0.774903
1750 9 0.910705 0.232398 0.769359
234 721 0.938847 0.297752 0.792718
235 721 0.938462 0.296663 0.784054
240 718 0.554205 0.31004 0.778832
241 717 0.558156 0.31093 0.785431
242 716 0.554178 0.310143 0.791936
243 715 0.558613 0.306427 0.795953
244 714 0.563821 0.304015 0.792579
246 715 0.563217 0.306082 0.786289
247 721 0.557418 0.310733 0.774468
248 721 0.551898 0.30512 0.778272
249 721 0.550228 0.313753 0.778399
250 720 0.560603 0.3158 0.785461
251 719 0.553007 0.314949 0.794228
252 719 0.549557 0.307335 0.791248
245 713 0.568291 0.30046 0.794813
230 715 0.928156 0.312123 0.780007
231 714 0.924034 0.30857 0.783853
232 713 0.917906 0.30875 0.783756
233 715 0.927814 0.304836 0.787852
227 718 0.939358 0.30038 0.787955
228 717 0.934663 0.306525 0.787583
229 716 0.93495 0.310663 0.78114
236 721 0.944595 0.301877 0.787595
237 720 0.935633 0.309821 0.791814
238 719 0.93785 0.315236 0.78176
239 719 0.936945 0.30785 0.776918
564 7 0.0976637 0.436147 0.768482
563 7 0.0996688 0.435826 0.769727
560 6 0.0988254 0.436855 0.769077
562 6 0.0967192 0.441014 0.773599
569 8 0.0928061 0.437378 0.777648
570 8 0.093021 0.446121 0.771209
568 8 0.10177 0.443569 0.777264
1492 421 0.418319 0.499505 0.768537
1495 437 0.420802 0.497536 0.776799
645 8 0.0988962 0.0630702 0.823801
635 6 0.094498 0.0703242 0.830936
637 6 0.0990515 0.0692922 0.826394
638 7 0.0945928 0.0717173 0.831395
639 7 0.0931856 0.0701608 0.830324
644 8 0.0976767 0.0735887 0.821444
643 8 0.105328 0.0705195 0.828533
647 4 0.493171 0.0949022 0.80099
650 6 0.499159 0.0983145 0.800602
653 7 0.498794 0.0997206 0.800376
652 6 0.503549 0.098024 0.805403
660 8 0.505706 0.0917679 0.806698
658 8 0.501408 0.100745 0.81119
659 8 0.508807 0.10158 0.803266
1261 719 0.112749 0.146248 0.820965
1262 719 0.11071 0.138508 0.821168
1263 718 0.111844 0.136878 0.827965
1264 717 0.113929 0.141988 0.831724
1266 718 0.113671 0.147485 0.827884
1267 790 0.114917 0.13391 0.818255
1268 722 0.117459 0.147797 0.818464
1269 722 0.109254 0.150072 0.818964
1270 792 0.105633 0.13669 0.819838
1173 88 0.952824 0.195276 0.832094
1351 94 0.0477558 0.233143 0.807742
1349 717 0.0292412 0.236131 0.81586
1345 463 0.0433727 0.236043 0.809167
1346 463 0.0404175 0.241159 0.80611
1347 719 0.0349758 0.243456 0.809504
1348 718 0.0346486 0.237905 0.813532
1350 719 0.0402845 0.234275 0.814972
1352 94 0.0416925 0.243661 0.801438
1027 6 0.984429 0.498951 0.820315
1033 8 0.981828 0.492841 0.821487
1034 8 0.990652 0.498138 0.817977
632 4 0.0942177 0.0665058 0.836677
263 720 0.288311 0.0519392 0.833475
253 718 0.294641 0.0441618 0.837651
254 717 0.288743 0.0491539 0.83814
255 716 0.281884 0.0462032 0.839875
256 715 0.279341 0.0509407 0.844425
257 714 0.283907 0.0553306 0.846474
258 713 0.283078 0.0598318 0.850556
259 715 0.28957 0.0539118 0.84329
260 721 0.29931 0.046697 0.83638
261 721 0.295602 0.041405 0.842269
262 721 0.293785 0.0404799 0.833715
264 719 0.278665 0.0457657 0.835497
265 719 0.282239 0.041338 0.842308
642 7 0.0781444 0.0692005 0.834683
641 7 0.077321 0.0675288 0.83623
631 3 0.0892555 0.0679945 0.841387
633 5 0.0827413 0.0706328 0.840517
634 5 0.0913194 0.0675938 0.84781
636 6 0.0777035 0.0689595 0.836054
640 7 0.0764482 0.0698365 0.836334
1408 91 0.797973 0.132258 0.864701
1265 716 0.115714 0.141753 0.83759
1404 421 0.797726 0.148056 0.857502
1405 422 0.791413 0.150363 0.860055
1407 437 0.797149 0.139284 0.856521
1401 130 0.800795 0.136418 0.86259
1403 437 0.803608 0.148373 0.864073
1406 422 0.800514 0.150912 0.851534
1409 91 0.80561 0.134427 0.860988
1170 83 0.932153 0.198633 0.848196
1176 88 0.929191 0.194113 0.847312
1165 83 0.954622 0.197412 0.83686
1166 434 0.950763 0.194964 0.843638
1167 411 0.94352 0.195915 0.843349
1168 409 0.939734 0.197302 0.84902
1169 410 0.942248 0.197546 0.854618
1172 88 0.960086 0.196451 0.836519
1174 413 0.951383 0.189595 0.844895
1175 413 0.953013 0.197148 0.848252
1177 88 0.93036 0.200616 0.852963
1178 88 0.930714 0.202466 0.844548
1171 88 0.954359 0.202834 0.835782
1297 790 0.440559 0.296304 0.841685
1300 792 0.44572 0.295968 0.850026
1292 719 0.444524 0.299743 0.846131
1291 719 0.442657 0.307333 0.847871
1293 718 0.450306 0.300544 0.842124
1294 717 0.452263 0.30688 0.841325
1295 716 0.456794 0.308903 0.837718
1296 718 0.448358 0.310649 0.845275
1298 722 0.438247 0.309709 0.845475