ITEM: TIMESTEP
54
ITEM: NUMBER OF ATOMS
5750
ITEM: BOX BOUNDS pp pp pp
-1.0000000000000000e+02 1.0000000000000000e+02
-1.0000000000000000e+02 1.0000000000000000e+02
-1.0000000000000000e+02 1.0000000000000000e+02
ITEM: ATOMS id type xs ys zs
201 1 0.64031 0.0579082 0.00568814
202 2 0.640733 0.0510723 0.00628357
203 3 0.644452 0.0614971 0.00131379
204 3 0.635716 0.0616628 0.00942692
209 5 0.634014 0.0676093 0.0044904
205 4 0.643574 0.0681459 0.0035914
206 4 0.635801 0.0678783 0.00603186
208 5 0.645364 0.0683658 0.00513716
210 5 0.634761 0.0694775 0.0074105
207 5 0.644425 0.0695993 0.00194767
4458 413 0.581055 0.131734 0.0106504
4460 88 0.564844 0.14699 0.0124259
4450 434 0.582357 0.1356 0.00687405
4451 411 0.576539 0.139956 0.00678146
4452 409 0.575709 0.145288 0.0110993
4453 410 0.579832 0.146713 0.0154208
4454 83 0.569254 0.14949 0.0103531
4459 413 0.586752 0.137955 0.00939941
4461 88 0.569892 0.154009 0.0133452
4462 88 0.568047 0.151338 0.00532363
556 4 0.238915 0.178317 0.000817772
560 5 0.238365 0.178239 0.00310483
4922 88 0.931861 0.184548 0.00052192
4923 88 0.932587 0.190883 0.00643329
4914 409 0.942212 0.187479 0.00315977
4915 410 0.944315 0.187348 0.00892716
4916 83 0.934755 0.189024 0.00178307
4921 413 0.955538 0.186458 0.00307293
2587 718 0.446467 0.238173 0.032888
2588 717 0.45263 0.240005 0.0285845
2589 716 0.4531 0.247371 0.02653
2590 715 0.459937 0.248742 0.0274685
2591 714 0.463074 0.244073 0.0310207
2593 715 0.458724 0.239142 0.0320536
2596 721 0.441859 0.238879 0.0300507
2597 720 0.452866 0.236846 0.0241401
2598 719 0.451531 0.248263 0.0213856
2599 719 0.450183 0.250572 0.0298372
2592 713 0.468878 0.244272 0.0329941
4421 83 0.0552442 0.366121 0.0229905
4423 411 0.0642469 0.36389 0.0317158
4427 88 0.0526989 0.361209 0.0231152
4429 88 0.0584856 0.365578 0.0185405
4422 434 0.0588565 0.368433 0.029945
4428 88 0.0512472 0.369388 0.0209892
4430 413 0.0613191 0.373414 0.0297916
4513 88 0.496509 0.388816 0.0147252
4505 83 0.501975 0.389272 0.0154436
4506 434 0.506671 0.388352 0.00882071
4507 411 0.505419 0.381954 0.00560787
4508 409 0.510245 0.378428 0.00213978
4509 410 0.515986 0.380492 0.00144016
4511 88 0.502859 0.385662 0.0195434
4512 88 0.502285 0.394101 0.0181341
4514 413 0.505805 0.392059 0.00477035
4515 413 0.512106 0.389238 0.00977485
4518 88 0.505646 0.36806 0.002347
2522 718 0.681629 0.0844974 0.0533999
2523 717 0.680352 0.0882804 0.0467731
2524 716 0.673406 0.0872421 0.0437126
2525 715 0.671721 0.0937431 0.0416124
2526 714 0.675664 0.0984301 0.0442098
2528 715 0.680477 0.0952986 0.0475765
2529 721 0.686554 0.0856387 0.0554797
2530 721 0.677957 0.0856319 0.0572925
2531 721 0.681514 0.0791021 0.0525893
2532 720 0.684181 0.0870314 0.0430896
2533 719 0.673399 0.0836989 0.0395696
2534 719 0.66979 0.0855938 0.0474415
2527 713 0.674993 0.104498 0.0436245
199 5 0.397433 0.199303 0.0537637
200 5 0.400029 0.199564 0.0561656
193 3 0.397272 0.210069 0.0474013
195 4 0.398066 0.208882 0.0543386
196 4 0.399173 0.200806 0.0543591
197 5 0.396343 0.210013 0.055475
198 5 0.39982 0.210387 0.0548868
191 1 0.401487 0.205212 0.0446079
192 2 0.403436 0.205467 0.0380192
194 3 0.403623 0.200089 0.0488948
2594 721 0.446542 0.232927 0.0344235
2595 721 0.446037 0.24116 0.0374506
2316 716 0.319405 0.286189 0.063814
2317 715 0.325022 0.284077 0.0601397
2318 714 0.32934 0.280547 0.0637666
2325 719 0.314765 0.285431 0.0610542
2326 719 0.319927 0.291492 0.064953
2319 713 0.334849 0.278548 0.0619585
4424 409 0.0660948 0.362536 0.0382351
4425 410 0.0633463 0.365149 0.0430637
4426 83 0.0719098 0.357544 0.0393133
4432 88 0.0768146 0.359748 0.0382758
4433 88 0.0719956 0.356259 0.0446162
4434 88 0.0715561 0.352706 0.0367374
4431 413 0.0552886 0.369266 0.0341657
281 1 0.431049 0.406554 0.0620905
284 3 0.425209 0.407971 0.0657055
285 4 0.429277 0.417027 0.0594394
286 4 0.422468 0.413352 0.0620059
287 5 0.429383 0.418623 0.0577131
288 5 0.430752 0.418121 0.0609454
289 5 0.421018 0.412217 0.0605065
290 5 0.420798 0.414365 0.0633189
283 3 0.433126 0.411413 0.057481
282 2 0.434553 0.400712 0.0630161
499 5 0.49286 0.456311 0.0340605
493 3 0.488662 0.462279 0.0442172
494 3 0.495353 0.46381 0.0344677
495 4 0.493165 0.45684 0.0436582
496 4 0.494556 0.456868 0.0356263
497 5 0.492276 0.455028 0.0448696
498 5 0.494847 0.457444 0.0452218
500 5 0.496325 0.455742 0.0345566
491 1 0.490956 0.46658 0.0391756
492 2 0.488979 0.473157 0.0388514
2496 718 0.15001 0.00278921 0.0800329
2497 717 0.151928 0.00636326 0.0866213
2498 716 0.150571 0.00236353 0.0930133
2499 715 0.156361 0.00361703 0.0968094
2500 714 0.161296 0.00629466 0.0932396
2502 715 0.158875 0.0075265 0.0871633
2503 721 0.151336 0.00576346 0.0756425
2505 721 0.144618 0.00198722 0.079777
2506 720 0.149468 0.0112242 0.0869469
2507 719 0.14605 0.00395011 0.0956129
2501 713 0.167011 0.00740306 0.0951703
2314 718 0.318383 0.285569 0.0767593
2315 717 0.319888 0.281877 0.0701287
2320 715 0.326562 0.279593 0.0697399
2321 721 0.319071 0.282319 0.0811007
2322 721 0.321528 0.289974 0.077556
2323 721 0.313191 0.28724 0.0768957
2324 720 0.316674 0.277498 0.0696053
344 3 0.327479 0.342803 0.0789853
345 4 0.330117 0.352591 0.073064
346 4 0.325676 0.34576 0.0728075
347 5 0.330573 0.353978 0.0712174
348 5 0.329664 0.35432 0.0746279
349 5 0.32616 0.34401 0.0712765
350 5 0.323332 0.345679 0.0726158
341 1 0.334149 0.344857 0.0796812
342 2 0.338375 0.341935 0.0842489
343 3 0.336273 0.350051 0.0754766
2547 719 0.283203 0.416976 0.0993258
2540 713 0.284739 0.436883 0.0986224
3988 8 0.473746 0.00541132 0.123049
2574 718 0.00715753 0.0454183 0.111451
2575 717 0.0132363 0.0481997 0.115346
2576 716 0.0130746 0.0470246 0.122916
2577 715 0.0197271 0.0451786 0.124275
2578 714 0.0231876 0.0436602 0.1188
2579 713 0.0288919 0.0414167 0.118592
2580 715 0.0192888 0.0450131 0.113578
2581 721 0.00767946 0.0461627 0.106061
2582 721 0.00633025 0.0400693 0.112246
2583 721 0.00258164 0.0480002 0.112925
2584 720 0.013884 0.0535231 0.114334
2585 719 0.0115698 0.0514404 0.125736
2586 719 0.00978415 0.0428872 0.12424
91 1 0.419605 0.0886481 0.125976
92 2 0.42191 0.082359 0.127516
93 3 0.423918 0.0937148 0.12376
94 3 0.412828 0.090352 0.126569
95 4 0.419899 0.099496 0.124522
96 4 0.412523 0.0964168 0.122923
99 5 0.411931 0.0956468 0.120756
100 5 0.410479 0.0974704 0.123429
97 5 0.420917 0.101254 0.123333
98 5 0.420507 0.100221 0.1267
2361 721 0.783914 0.197713 0.106039
2362 721 0.775176 0.197166 0.106916
2365 719 0.783182 0.197775 0.118814
2353 718 0.779328 0.200672 0.10642
2354 717 0.779386 0.205685 0.112313
2355 716 0.780678 0.202599 0.119206
2356 715 0.785102 0.20724 0.122105
2357 714 0.787683 0.211497 0.117693
2358 713 0.79203 0.215687 0.118774
2359 715 0.784676 0.210346 0.111868
2360 721 0.778656 0.203188 0.101614
2363 720 0.774743 0.208551 0.112432
2364 719 0.77614 0.20199 0.122164
4351 83 0.117488 0.2943 0.118213
4357 88 0.115676 0.290832 0.122124
4358 88 0.117215 0.291113 0.113694
4359 88 0.122937 0.294303 0.119171
4352 434 0.113776 0.301573 0.11791
4353 411 0.114913 0.305334 0.124025
4354 409 0.110363 0.309841 0.126621
4355 410 0.105003 0.311073 0.123892
4356 83 0.112279 0.313426 0.133208
4360 413 0.115573 0.304984 0.113905
4361 413 0.108362 0.301282 0.116554
4362 88 0.115954 0.317416 0.132457
2367 717 0.416849 0.317026 0.129859
2368 716 0.423692 0.316788 0.126422
2369 715 0.42366 0.310392 0.123489
2370 714 0.418822 0.306471 0.125827
2371 713 0.417979 0.300538 0.12452
2372 715 0.415067 0.31019 0.129873
2376 720 0.413272 0.319598 0.126639
2377 719 0.424363 0.320726 0.122711
2378 719 0.427768 0.317061 0.130029
441 1 0.989618 0.354713 0.105013
442 2 0.995462 0.358175 0.103953
443 3 0.989614 0.348097 0.107336
444 3 0.983343 0.357613 0.103833
445 4 0.982956 0.346082 0.106003
446 4 0.979003 0.353116 0.107164
447 5 0.982545 0.344089 0.107186
448 5 0.98317 0.345108 0.103848
449 5 0.978831 0.354114 0.109312
450 5 0.976803 0.353563 0.106456
4407 83 0.560416 0.391467 0.123014
4408 434 0.563278 0.388549 0.115939
4413 88 0.564036 0.394304 0.126091
4414 88 0.556159 0.394999 0.122775
4415 88 0.558514 0.387772 0.126665
4416 413 0.559577 0.385786 0.112847
4417 413 0.564775 0.392523 0.112306
4409 411 0.56856 0.383686 0.117074
4410 409 0.573819 0.382691 0.112703
4411 410 0.574389 0.385815 0.107447
4412 83 0.579081 0.377355 0.114636
4418 88 0.577307 0.372238 0.113825
4419 88 0.583334 0.377962 0.11127
4420 88 0.581257 0.377703 0.119667
2535 718 0.273498 0.418955 0.1082
2536 717 0.280111 0.422961 0.107919
2537 716 0.285416 0.420168 0.103148
2538 715 0.287891 0.426005 0.100097
2539 714 0.284031 0.431326 0.101119
2541 715 0.279233 0.429483 0.105349
2542 721 0.269818 0.421327 0.111471
2543 721 0.27112 0.418341 0.103311
2544 721 0.274359 0.413959 0.11022
2545 720 0.28224 0.423491 0.112916
2546 719 0.289344 0.417385 0.105706
4625 88 0.705272 0.491181 0.132986
4624 88 0.711565 0.485412 0.133156
532 2 0.331621 0.0325806 0.163171
5024 434 0.867547 0.000623787 0.166192
5032 413 0.867955 0.000218189 0.160663
2330 715 0.276409 0.0610474 0.148894
2331 714 0.27278 0.0570394 0.145017
2332 713 0.272422 0.0509295 0.145403
2333 715 0.269593 0.0609092 0.140638
539 5 0.33293 0.0504513 0.164032
531 1 0.332984 0.0391059 0.16149
533 3 0.331295 0.0417362 0.155213
537 5 0.334271 0.0490536 0.153305
540 5 0.336358 0.0513577 0.163963
538 5 0.337078 0.0469997 0.153997
536 4 0.334936 0.0497787 0.162952
535 4 0.335082 0.0477192 0.155066
534 3 0.336148 0.0434838 0.165963
271 1 0.659069 0.0547103 0.162816
273 3 0.664547 0.0590872 0.162838
274 3 0.653869 0.0562348 0.158364
275 4 0.661965 0.0646809 0.159344
276 4 0.656942 0.0609808 0.154097
277 5 0.663772 0.0660624 0.158739
279 5 0.657758 0.0595977 0.152347
280 5 0.655251 0.0620527 0.15286
278 5 0.661147 0.0660246 0.161123
2562 717 0.760158 0.0664984 0.149051
2565 714 0.750778 0.0613882 0.144869
2566 713 0.747029 0.0569926 0.142811
2567 715 0.757301 0.0607788 0.146044
2571 720 0.760625 0.0654295 0.154382
2568 721 0.770702 0.0643218 0.146745
2327 718 0.265517 0.0725358 0.140414
2334 721 0.262891 0.0719905 0.135651
2335 721 0.2618 0.0718401 0.144367
2328 717 0.271528 0.0676959 0.140962
2329 716 0.275261 0.0678765 0.147649
2336 721 0.267193 0.0777229 0.140663
2337 720 0.275046 0.0685452 0.136877
2338 719 0.27991 0.0707152 0.14743
2339 719 0.27215 0.0699035 0.151638
11 1 0.464574 0.0915229 0.144306
14 3 0.457743 0.092684 0.145389
16 4 0.456419 0.097953 0.140844
19 5 0.455706 0.0967605 0.138918
20 5 0.454332 0.0988889 0.141399
12 2 0.467695 0.0858435 0.146601
13 3 0.468068 0.0964893 0.140798
21 1 0.550213 0.0955166 0.144828
22 2 0.546243 0.0933056 0.139669
24 3 0.549336 0.0932397 0.151402
25 4 0.559073 0.0995984 0.149799
26 4 0.553101 0.0979631 0.1551
28 5 0.560701 0.0979733 0.149208
30 5 0.553416 0.0971076 0.15727
29 5 0.551444 0.0995723 0.155654
2563 716 0.754635 0.071693 0.147945
2564 715 0.749102 0.0676581 0.14633
2572 719 0.75369 0.0747809 0.152338
2573 719 0.755749 0.0749454 0.143717
2561 718 0.767046 0.068323 0.146037
2569 721 0.76686 0.0693774 0.140672
2570 721 0.769108 0.072743 0.148485
15 4 0.463535 0.101925 0.141047
17 5 0.464233 0.10353 0.139474
18 5 0.46427 0.103076 0.14299
23 3 0.555362 0.100163 0.143792
27 5 0.560532 0.101441 0.149931
252 2 0.668635 0.163915 0.138234
254 3 0.666219 0.171281 0.147569
259 5 0.665464 0.179149 0.147166
251 1 0.669625 0.16982 0.141615
253 3 0.674111 0.174689 0.139306
255 4 0.674829 0.178837 0.145002
256 4 0.667374 0.178236 0.148244
257 5 0.675849 0.180845 0.144319
258 5 0.676732 0.177882 0.146056
260 5 0.6668 0.178862 0.150439
2379 718 0.871726 0.211049 0.140082
2380 717 0.878097 0.215161 0.141618
2381 716 0.876974 0.222679 0.142573
2382 715 0.881094 0.224107 0.148095
2383 714 0.883129 0.218653 0.151316
2384 713 0.886312 0.218482 0.156555
2385 715 0.881044 0.213404 0.147794
2386 721 0.872792 0.205699 0.139723
2387 721 0.867798 0.211639 0.143844
2388 721 0.869597 0.21252 0.135277
2389 720 0.881873 0.214349 0.137763
2390 719 0.878347 0.225622 0.138194
2391 719 0.871804 0.223791 0.143887
4363 88 0.107797 0.315921 0.135071
4364 88 0.113921 0.310261 0.137385
2366 718 0.416831 0.320124 0.136949
2373 721 0.411878 0.31991 0.139251
2374 721 0.420297 0.317672 0.1404
2375 721 0.418209 0.3254 0.136748
81 1 0.669944 0.332497 0.156941
82 2 0.666927 0.327048 0.159852
84 3 0.666314 0.337128 0.153126
83 3 0.676816 0.333715 0.157625
85 4 0.67733 0.340444 0.155472
86 4 0.67148 0.340651 0.149798
87 5 0.679603 0.340916 0.155087
88 5 0.677125 0.341623 0.157523
89 5 0.671663 0.339433 0.147768
90 5 0.670554 0.342612 0.148882
4630 88 0.69109 0.493524 0.154457
4629 88 0.689037 0.486271 0.158708
4628 88 0.684893 0.487961 0.151254
4622 83 0.689796 0.488243 0.153677
4621 410 0.696764 0.478452 0.152754
4620 409 0.695105 0.483795 0.150223
4619 411 0.697772 0.486083 0.144273
4626 413 0.699861 0.47901 0.137303
4627 413 0.705575 0.478745 0.143627
4623 88 0.71074 0.491022 0.139587
4618 434 0.70282 0.482466 0.140496
4617 83 0.707704 0.48762 0.136453
5393 88 0.35347 0.00386756 0.195879
5031 88 0.865885 0.0121773 0.167643
5023 83 0.869155 0.00802097 0.169267
5029 88 0.868852 0.00845799 0.174775
5030 88 0.87416 0.0101641 0.16826
272 2 0.658809 0.049213 0.166937
2406 717 0.632182 0.14908 0.189646
2407 716 0.627667 0.143986 0.186128
2408 715 0.622811 0.148114 0.183147
2409 714 0.622863 0.154334 0.185507
2410 713 0.618862 0.158783 0.184162
2411 715 0.62807 0.154824 0.189625
2416 719 0.630314 0.140967 0.18244
2417 719 0.625222 0.140665 0.18969
2405 718 0.634476 0.147085 0.19676
2412 721 0.637449 0.151019 0.199119
2414 721 0.637652 0.142651 0.196586
2415 720 0.636491 0.150195 0.186488
418 5 0.284494 0.2644 0.194121
420 5 0.295055 0.266343 0.192247
415 4 0.28552 0.266539 0.193998
4490 88 0.823755 0.250353 0.198366
416 4 0.293622 0.267409 0.19378
417 5 0.284015 0.267498 0.192463
419 5 0.294649 0.26955 0.193706
4392 88 0.0662995 0.360889 0.180281
4380 434 0.0782547 0.350344 0.194446
4381 411 0.0754336 0.354549 0.189232
4382 409 0.0727 0.352056 0.183395
4383 410 0.0725155 0.34605 0.182132
4384 83 0.0698493 0.357175 0.178339
4388 413 0.0835254 0.349604 0.192842
4389 413 0.0764253 0.34507 0.194163
4390 88 0.0737604 0.35977 0.175518
4391 88 0.0669968 0.354381 0.17462
2346 715 0.265144 0.426914 0.196128
2348 721 0.254034 0.418891 0.198639
2344 714 0.271201 0.424463 0.19486
2345 713 0.274746 0.425841 0.190049
2343 715 0.272667 0.420226 0.199774
5397 413 0.346209 0.00339263 0.207744
5396 413 0.353458 0.00309186 0.212226
5395 88 0.360795 0.00393944 0.200331
5394 88 0.355544 0.0106643 0.200675
5387 83 0.355423 0.00513353 0.200899
5388 434 0.351513 0.00171305 0.207205
221 1 0.123217 0.0513906 0.230066
222 2 0.129298 0.0535119 0.227658
223 3 0.121238 0.0446737 0.229689
225 4 0.114296 0.045118 0.231022
228 5 0.113395 0.0452924 0.228831
224 3 0.118668 0.055827 0.23303
227 5 0.113503 0.0429528 0.231494
2413 721 0.630328 0.145977 0.200151
36 4 0.431745 0.230359 0.229485
39 5 0.432243 0.228529 0.228054
40 5 0.430974 0.231832 0.22782
34 3 0.426122 0.227918 0.233034
414 3 0.295342 0.265215 0.20029
4523 410 0.499836 0.265248 0.225084
4522 409 0.505964 0.265061 0.224737
4524 83 0.509621 0.258254 0.224312
4530 88 0.511928 0.256787 0.229058
4531 88 0.505856 0.254438 0.223295
4532 88 0.513307 0.257648 0.220286
4480 409 0.828783 0.247422 0.208104
4481 410 0.826984 0.247487 0.213974
4482 83 0.823549 0.246686 0.20245
4488 88 0.823444 0.241649 0.200302
4489 88 0.818622 0.247409 0.204681
4477 83 0.846984 0.25304 0.207753
4478 434 0.840865 0.248695 0.210985
4479 411 0.835415 0.24794 0.206236
4483 88 0.845787 0.25828 0.206438
4484 88 0.851547 0.253684 0.210822
4485 88 0.849156 0.251177 0.203018
4486 413 0.842148 0.243467 0.212371
4487 413 0.83913 0.250596 0.215945
411 1 0.289806 0.267327 0.204041
412 2 0.289963 0.267569 0.21091
413 3 0.284099 0.269184 0.200413
4519 83 0.511918 0.282793 0.221116
4520 434 0.507136 0.277488 0.225085
4521 411 0.50987 0.270762 0.224751
4525 88 0.512435 0.281963 0.21567
4526 88 0.510484 0.288137 0.22129
4527 88 0.517211 0.283071 0.222702
4528 413 0.50658 0.278421 0.230536
4529 413 0.501772 0.277695 0.223532
4559 88 0.795254 0.317487 0.23254
4558 88 0.786589 0.318199 0.232473
4379 83 0.0773028 0.353766 0.201804
4385 88 0.0720759 0.354443 0.203488
4386 88 0.0795314 0.351142 0.20614
4387 88 0.0793561 0.358858 0.202486
3644 8 0.181906 0.362799 0.229435
3645 8 0.171488 0.363652 0.232496
331 1 0.442953 0.350837 0.21034
332 2 0.440248 0.345337 0.207225
333 3 0.445148 0.350602 0.216997
334 3 0.443663 0.356979 0.207031
335 4 0.445805 0.357478 0.218564
336 4 0.448096 0.360451 0.211327
337 5 0.447048 0.357658 0.220554
338 5 0.443676 0.357964 0.219499
339 5 0.450205 0.359925 0.21037
340 5 0.448061 0.362727 0.210728
2347 721 0.251972 0.427229 0.200488
2340 718 0.255078 0.423019 0.202073
2341 717 0.262568 0.424927 0.202399
2349 721 0.253254 0.421529 0.206996
2350 720 0.263332 0.429101 0.20583
2352 719 0.265081 0.414332 0.203213
2342 716 0.267316 0.419198 0.204226
2351 719 0.268939 0.419338 0.209429
226 4 0.114169 0.0513887 0.236229
229 5 0.115113 0.0512295 0.238403
230 5 0.112247 0.0526062 0.236832
3620 6 0.388514 0.0914395 0.264071
3622 6 0.387684 0.0890535 0.258062
3624 7 0.388787 0.0929181 0.263998
3628 8 0.386963 0.0823442 0.258032
3629 8 0.393213 0.090543 0.254564
3630 8 0.382379 0.0916371 0.254804
3623 7 0.389734 0.0908036 0.264667
131 1 0.15411 0.114327 0.249499
132 2 0.148537 0.118351 0.249354
133 3 0.155897 0.110703 0.25523
134 3 0.158321 0.113648 0.243933
135 4 0.162574 0.108848 0.253766
136 4 0.162138 0.107942 0.245677
137 5 0.163213 0.107165 0.255283
138 5 0.163796 0.110624 0.254763
139 5 0.160876 0.106195 0.24468
140 5 0.163989 0.107831 0.244228
2471 717 0.830272 0.131257 0.263472
2472 716 0.822712 0.130692 0.26458
2473 715 0.820926 0.125597 0.260068
2474 714 0.825696 0.124244 0.255633
2475 713 0.825264 0.120419 0.250858
2476 715 0.831032 0.12784 0.257335
2470 718 0.833033 0.13848 0.263222
2478 721 0.830602 0.141606 0.259448
2482 719 0.820124 0.13528 0.263183
2477 721 0.838393 0.138575 0.262152
31 1 0.429113 0.225076 0.238704
32 2 0.425671 0.22081 0.242855
33 3 0.43579 0.226832 0.239927
35 4 0.436635 0.232429 0.23567
37 5 0.43894 0.232864 0.235483
306 4 0.569316 0.232757 0.253986
308 5 0.578688 0.231579 0.255791
310 5 0.568029 0.230817 0.253639
305 4 0.576964 0.232861 0.256803
307 5 0.577586 0.232475 0.25904
322 2 0.366111 0.249948 0.23603
321 1 0.371975 0.25103 0.239451
323 3 0.377318 0.254559 0.236591
324 3 0.372931 0.248671 0.245985
325 4 0.382647 0.252945 0.240968
326 4 0.37864 0.252325 0.24804
327 5 0.384417 0.254436 0.240544
328 5 0.383593 0.251049 0.239896
329 5 0.377651 0.254213 0.249088
330 5 0.379489 0.251317 0.249991
38 5 0.436112 0.234228 0.23713
309 5 0.567602 0.234077 0.254968
301 1 0.575346 0.240502 0.249132
302 2 0.576826 0.245716 0.244903
303 3 0.578889 0.23946 0.255095
304 3 0.570188 0.235962 0.247731
141 1 0.73783 0.312298 0.257435
142 2 0.734363 0.313471 0.263255
143 3 0.738567 0.317239 0.252514
144 3 0.740813 0.306093 0.256103
145 4 0.740774 0.313448 0.246953
146 4 0.745127 0.307671 0.250711
147 5 0.741616 0.314941 0.24534
148 5 0.738723 0.312958 0.24586
149 5 0.747153 0.30817 0.251845
150 5 0.745832 0.305654 0.249725
4547 83 0.785554 0.329115 0.25736
4548 434 0.787917 0.331077 0.249789
4549 411 0.787595 0.325306 0.245382
4550 409 0.791848 0.324376 0.240015
4551 410 0.7962 0.328434 0.238499
4552 83 0.790916 0.317939 0.23582
4553 88 0.788714 0.32541 0.259986
4554 88 0.78531 0.3332 0.26109
4555 88 0.780524 0.32688 0.257919
4560 88 0.790765 0.313178 0.238554
3637 6 0.177849 0.363565 0.234724
3643 8 0.178509 0.358113 0.238645
4556 413 0.784762 0.334873 0.247232
4557 413 0.79287 0.333658 0.249575
3639 7 0.179609 0.370198 0.236795
3631 3 0.178515 0.376269 0.247389
3632 4 0.176215 0.371071 0.243386
3633 5 0.182019 0.382075 0.245572
3634 5 0.177958 0.375103 0.254026
3635 6 0.179664 0.369042 0.237757
3636 6 0.180974 0.385853 0.239935
3638 7 0.181096 0.368896 0.238176
3640 7 0.181938 0.387015 0.239919
3641 7 0.179569 0.386353 0.239935
3642 7 0.181189 0.385013 0.238727
3611 7 0.754454 0.432655 0.264046
3609 7 0.770376 0.429011 0.266005
3614 8 0.779489 0.426918 0.260829
2301 718 0.548983 0.464116 0.263646
2305 714 0.56658 0.46539 0.26531
2307 715 0.560993 0.466128 0.261768
2308 721 0.547544 0.465177 0.258481
2309 721 0.549449 0.458683 0.264084
2306 713 0.572197 0.464375 0.263069
3606 6 0.755277 0.433846 0.263687
3610 7 0.754423 0.434874 0.262985
3612 7 0.756381 0.433417 0.262787
4607 410 0.0989602 0.47229 0.256522
4608 83 0.0944114 0.480169 0.264421
4614 88 0.0923995 0.48481 0.26232
4615 88 0.0902597 0.476629 0.264369
4603 83 0.118985 0.479429 0.260819
4604 434 0.112081 0.47792 0.25672
4605 411 0.10628 0.480164 0.260477
4606 409 0.100084 0.477148 0.260107
4609 88 0.119557 0.476778 0.265642
4610 88 0.123761 0.478196 0.258304
4611 88 0.11991 0.484675 0.262318
4612 413 0.1116 0.480546 0.251843
4613 413 0.11159 0.472623 0.255008
2302 717 0.555399 0.467925 0.26569
2311 720 0.554701 0.473306 0.265099
3616 3 0.384433 0.0921964 0.275438
3617 4 0.383474 0.0906529 0.268727
3618 5 0.388426 0.0971886 0.27834
3619 5 0.381686 0.087742 0.27972
3682 6 0.480292 0.0766777 0.296156
3688 8 0.479023 0.0832645 0.296891
3689 8 0.476076 0.0742757 0.291521
3690 8 0.486572 0.0761164 0.293774
121 1 0.0857246 0.119632 0.289807
122 2 0.0881736 0.113502 0.287885
123 3 0.0882782 0.125617 0.287195
124 3 0.0805388 0.120228 0.29449
125 4 0.0856706 0.130414 0.291708
126 4 0.0785327 0.126962 0.293601
128 5 0.0874325 0.130594 0.29329
129 5 0.0767885 0.126738 0.292005
130 5 0.0771809 0.127569 0.29543
127 5 0.0859277 0.132543 0.290739
293 3 0.292731 0.115864 0.2968
295 4 0.29981 0.116088 0.29685
297 5 0.300513 0.117388 0.295018
298 5 0.300366 0.113966 0.295938
3621 6 0.389336 0.103563 0.275958
3625 7 0.390271 0.104317 0.276875
3626 7 0.388016 0.104254 0.275892
3627 7 0.389921 0.103504 0.274592
2480 720 0.8329 0.128334 0.267258
2481 719 0.821389 0.129421 0.269713
2479 721 0.832381 0.140957 0.26804
2422 714 0.299354 0.189633 0.299102
2424 715 0.294076 0.186384 0.296675
2425 721 0.284382 0.176525 0.295483
2426 721 0.291338 0.173032 0.299561
2423 713 0.303507 0.192762 0.295851
151 1 0.569879 0.198396 0.275378
152 2 0.573051 0.192636 0.273376
154 3 0.567295 0.199139 0.281854
462 2 0.198553 0.23216 0.29475
156 4 0.563118 0.204812 0.28112
157 5 0.566443 0.21083 0.274282
159 5 0.561025 0.203807 0.280619
160 5 0.562563 0.205593 0.28327
153 3 0.569079 0.203858 0.271049
155 4 0.5673 0.209035 0.275541
158 5 0.569416 0.209998 0.276027
2486 715 0.693996 0.232313 0.283182
2487 714 0.695192 0.230978 0.276776
2488 713 0.694701 0.225514 0.274032
461 1 0.197514 0.238895 0.295659
464 3 0.191236 0.241453 0.297454
465 4 0.199925 0.249336 0.297904
466 4 0.192034 0.248362 0.296109
469 5 0.19123 0.248514 0.29388
470 5 0.19026 0.249516 0.29714
463 3 0.202677 0.24357 0.294845
467 5 0.201235 0.251189 0.29728
2483 718 0.694862 0.248671 0.275821
2484 717 0.697801 0.242019 0.278461
2485 716 0.694358 0.239177 0.284688
2489 715 0.697014 0.236691 0.273889
2490 721 0.697335 0.250309 0.271229
2491 721 0.689507 0.248402 0.274734
2492 721 0.695575 0.252671 0.279464
2494 719 0.697137 0.240109 0.289284
2495 719 0.689303 0.241132 0.285262
2493 720 0.703152 0.242532 0.279403
101 1 0.473609 0.298272 0.294562
102 2 0.478221 0.293188 0.294179
104 3 0.468802 0.29852 0.299662
106 4 0.46425 0.30333 0.297148
109 5 0.462678 0.301958 0.296014
110 5 0.462841 0.303994 0.298913
103 3 0.47347 0.303492 0.289881
105 4 0.469348 0.308254 0.293122
107 5 0.468699 0.309862 0.29153
108 5 0.470953 0.309589 0.294254
41 1 0.588053 0.393444 0.28432
42 2 0.592673 0.389083 0.281695
43 3 0.583663 0.391527 0.289442
45 4 0.578865 0.396735 0.289283
47 5 0.577594 0.396617 0.29126
48 5 0.577224 0.395833 0.287822
44 3 0.587467 0.400039 0.28201
46 4 0.583561 0.403032 0.287104
49 5 0.585235 0.403902 0.288546
50 5 0.582766 0.405095 0.286298
3601 3 0.762138 0.433333 0.273992
3605 6 0.771281 0.429293 0.267174
3608 7 0.771691 0.430731 0.267065
3602 4 0.767319 0.428849 0.272813
3607 6 0.776635 0.425597 0.266756
3613 8 0.781131 0.427024 0.271581
3615 8 0.775416 0.418975 0.267071
421 1 0.0923683 0.445513 0.290829
422 2 0.0962861 0.44065 0.293704
423 3 0.0916456 0.446047 0.283875
424 3 0.0888724 0.4502 0.294702
425 4 0.0888097 0.452501 0.28319
426 4 0.0843267 0.452894 0.289987
427 5 0.087967 0.4527 0.281001
428 5 0.090743 0.453847 0.282886
429 5 0.0824217 0.451513 0.290311
430 5 0.0834174 0.454866 0.290894
2310 721 0.544768 0.465635 0.266761
2303 716 0.557971 0.466428 0.27275
2304 715 0.564915 0.465931 0.271728
2313 719 0.55611 0.461651 0.274599
3603 5 0.757913 0.436568 0.269412
3604 5 0.761667 0.43539 0.280416
4616 88 0.0954797 0.480956 0.269751
1542 2 0.315285 0.499848 0.294175
2312 719 0.556717 0.470319 0.276357
361 1 0.0634141 0.045588 0.327777
362 2 0.0568654 0.0444388 0.329527
364 3 0.0651193 0.0490434 0.321918
363 3 0.068743 0.0433693 0.331759
365 4 0.0741799 0.0470596 0.329116
366 4 0.0720059 0.0475184 0.321273
367 5 0.0761734 0.0460943 0.329912
368 5 0.0741939 0.0489721 0.330524
369 5 0.0719448 0.0455978 0.319877
370 5 0.0729366 0.0489976 0.319696
3681 6 0.480081 0.0598354 0.311963
3685 7 0.479271 0.0587329 0.312604
3686 7 0.481537 0.0595452 0.312097
3687 7 0.479736 0.0599303 0.31052
3678 5 0.478683 0.0658057 0.315052
401 1 0.209038 0.0931447 0.306385
402 2 0.209295 0.0873831 0.302642
403 3 0.210696 0.0932004 0.313199
404 3 0.207089 0.0992754 0.303594
405 4 0.208081 0.0994416 0.31529
408 5 0.205911 0.0988287 0.316036
407 5 0.208988 0.0999416 0.317404
3684 7 0.479417 0.0718443 0.301378
3676 3 0.481459 0.0720553 0.313465
3677 4 0.483009 0.0747445 0.307243
3679 5 0.482009 0.0764358 0.318586
3680 6 0.479234 0.0733155 0.30164
3683 7 0.477802 0.0735075 0.302041
119 5 0.00651342 0.13174 0.326815
406 4 0.20921 0.103876 0.308544
409 5 0.211382 0.104447 0.307771
410 5 0.208186 0.105948 0.308101
291 1 0.291316 0.113407 0.303214
292 2 0.285096 0.110997 0.304877
294 3 0.296574 0.113565 0.30785
296 4 0.301195 0.117895 0.304677
299 5 0.300595 0.119999 0.305601
300 5 0.303269 0.117676 0.305769
114 3 0.00192432 0.135358 0.321478
115 4 0.00526257 0.139876 0.331787
116 4 0.00690034 0.134035 0.326342
118 5 0.00560352 0.142175 0.331297
120 5 0.00895588 0.133763 0.325229
383 3 0.642459 0.1619 0.329718
385 4 0.648319 0.158554 0.327566
386 4 0.652384 0.164721 0.324116
387 5 0.647669 0.156579 0.326463
388 5 0.649061 0.157538 0.32958
389 5 0.651615 0.165769 0.322128
390 5 0.654672 0.164692 0.323568
111 1 0.996621 0.13769 0.32543
112 2 0.990221 0.138192 0.322971
113 3 0.998194 0.139491 0.332022
2418 718 0.287298 0.176682 0.300104
2419 717 0.289805 0.183828 0.301688
2420 716 0.294253 0.184422 0.307898
2421 715 0.299285 0.188824 0.305705
2427 721 0.284007 0.174875 0.304063
2428 720 0.2856 0.18728 0.302111
2429 719 0.291606 0.186361 0.312251
2430 719 0.296529 0.179646 0.309208
381 1 0.644928 0.168269 0.331305
384 3 0.651339 0.169817 0.328922
468 5 0.200737 0.249135 0.300127
451 1 0.359109 0.260469 0.3276
452 2 0.364396 0.256436 0.325852
453 3 0.352741 0.257849 0.328922
455 4 0.348698 0.263661 0.328725
457 5 0.346611 0.263132 0.329676
458 5 0.347994 0.263681 0.326457
454 3 0.359805 0.267424 0.328163
456 4 0.353906 0.269206 0.331654
460 5 0.353634 0.271538 0.331485
2509 718 0.739628 0.320337 0.327521
2510 717 0.745802 0.323955 0.330464
2513 714 0.757123 0.322402 0.329472
2514 713 0.762761 0.322391 0.327057
2515 715 0.751441 0.323605 0.326222
2516 721 0.738031 0.322558 0.322789
2517 721 0.740475 0.315016 0.326574
2518 721 0.735373 0.32072 0.330915
2519 720 0.744724 0.329247 0.331248
269 5 0.968256 0.307 0.317563
261 1 0.973225 0.309363 0.30732
262 2 0.972825 0.310132 0.3005
263 3 0.976551 0.31402 0.311373
264 3 0.97033 0.303878 0.310594
265 4 0.977233 0.310447 0.31745
266 4 0.970401 0.306002 0.31735
267 5 0.977824 0.31198 0.319136
268 5 0.979375 0.309456 0.317188
270 5 0.969989 0.304126 0.31871
2397 713 0.809487 0.373455 0.329922
1544 3 0.319241 0.49911 0.305622
4541 88 0.466409 0.0213925 0.356792
4533 83 0.470103 0.0244128 0.359591
4539 88 0.469422 0.0294026 0.357298
4540 88 0.474828 0.0227479 0.357232
171 1 0.28141 0.0482566 0.362794
172 2 0.282258 0.0550582 0.363357
173 3 0.2863 0.04373 0.364976
174 3 0.275607 0.0454773 0.360003
175 4 0.284202 0.0377071 0.361895
176 4 0.276112 0.0387043 0.362014
177 5 0.285359 0.0359261 0.362909
178 5 0.285438 0.0377474 0.359868
179 5 0.274882 0.0387126 0.364046
180 5 0.274577 0.0374493 0.360747
4563 411 0.299186 0.0755572 0.363516
4569 88 0.297476 0.0807303 0.350101
4570 413 0.300269 0.0684992 0.35631
4561 83 0.30248 0.0790058 0.351711
4562 434 0.302725 0.0733225 0.357577
4567 88 0.304979 0.0837989 0.352891
4568 88 0.304772 0.077732 0.346835
4571 413 0.30788 0.0714944 0.358724
471 1 0.528082 0.113324 0.360787
473 3 0.526595 0.119845 0.362894
474 3 0.523689 0.108281 0.362896
476 4 0.518117 0.112038 0.365134
479 5 0.516769 0.112112 0.36318
480 5 0.516732 0.110611 0.366392
472 2 0.533565 0.111948 0.356874
117 5 0.00606509 0.139926 0.333999
504 3 0.0644264 0.194545 0.349
501 1 0.0689489 0.189894 0.351662
502 2 0.0668257 0.183996 0.354489
503 3 0.0757475 0.191563 0.351262
505 4 0.0754671 0.198473 0.349729
506 4 0.0686956 0.198727 0.345197
507 5 0.0776032 0.199149 0.349006
509 5 0.0685849 0.197707 0.343055
508 5 0.0755628 0.199451 0.351891
382 2 0.641259 0.172756 0.335003
510 5 0.0675058 0.200683 0.344653
352 2 0.472162 0.229753 0.363216
4435 83 0.0196187 0.256793 0.364918
4442 88 0.0176846 0.255963 0.359797
4443 88 0.0234218 0.252791 0.365268
4444 413 0.0260705 0.266445 0.363663
351 1 0.477125 0.234446 0.364001
354 3 0.481203 0.236438 0.358655
356 4 0.486473 0.239781 0.362003
359 5 0.488052 0.238029 0.362287
360 5 0.487686 0.241014 0.360407
4393 83 0.766501 0.237761 0.357871
4394 434 0.758482 0.239154 0.357151
4395 411 0.756554 0.239725 0.350166
4396 409 0.751352 0.243706 0.347967
4397 410 0.747888 0.247036 0.35179
4398 83 0.74994 0.243819 0.340358
4402 413 0.755193 0.235122 0.359106
4403 413 0.756657 0.243446 0.360231
4404 88 0.747369 0.239309 0.338612
4405 88 0.746472 0.247922 0.339401
4406 88 0.754202 0.244828 0.337044