ITEM: TIMESTEP
53
ITEM: NUMBER OF ATOMS
1510
ITEM: BOX BOUNDS pp pp pp
-1.0000000000000000e+02 1.0000000000000000e+02
-1.0000000000000000e+02 1.0000000000000000e+02
-1.0000000000000000e+02 1.0000000000000000e+02
ITEM: ATOMS id type xs ys zs
1473 431 0.435295 0.00551025 0.0312967
86 4 0.238921 0.178315 0.000814772
90 5 0.238364 0.178233 0.00311142
1221 715 0.69662 0.308607 0.0174045
1224 713 0.694052 0.313605 0.0273004
1225 712 0.690906 0.316617 0.0316158
1226 714 0.691616 0.3112 0.021613
1228 718 0.697584 0.312152 0.0133775
1229 718 0.695193 0.30381 0.0152555
1222 715 0.70261 0.308082 0.0220955
1223 714 0.700507 0.312042 0.027516
1227 786 0.708334 0.309659 0.018778
1230 788 0.703184 0.302951 0.0238531
1470 415 0.441009 0.00308932 0.0376031
1471 416 0.437959 0.00430835 0.0440048
1472 416 0.44746 0.00584361 0.036077
216 715 0.31936 0.286212 0.0638706
217 714 0.325108 0.284327 0.0602764
218 713 0.32933 0.28061 0.0638356
225 718 0.314819 0.285188 0.0610312
226 718 0.319572 0.291535 0.0650299
219 712 0.334739 0.278436 0.0619552
214 717 0.318418 0.285532 0.0766969
215 716 0.319899 0.281876 0.0701307
220 714 0.326603 0.279757 0.0698496
221 720 0.318964 0.282207 0.0809769
222 720 0.321778 0.289744 0.0774707
223 720 0.313321 0.287438 0.0767148
224 719 0.31669 0.277498 0.0696281
746 718 0.456966 0.000911244 0.116102
1341 712 0.590672 0.208283 0.130425
1081 80 0.117481 0.294799 0.11846
1087 85 0.115582 0.291521 0.122381
1088 85 0.116889 0.292202 0.113705
1089 85 0.122808 0.295581 0.119316
1082 431 0.113674 0.301436 0.118389
1083 408 0.114667 0.304838 0.124536
1084 406 0.110483 0.309815 0.126216
1085 407 0.105686 0.31174 0.122876
1086 80 0.112235 0.313064 0.13287
1090 410 0.115396 0.304566 0.114264
1091 410 0.108362 0.300465 0.117616
1092 85 0.116208 0.316734 0.132187
11 1 0.464567 0.0915362 0.144285
14 3 0.45773 0.0926814 0.145387
16 4 0.456434 0.0979641 0.140852
19 5 0.455718 0.0967811 0.138917
20 5 0.454337 0.0989024 0.141412
12 2 0.467675 0.0858315 0.146537
13 3 0.468076 0.0964962 0.140769
21 1 0.550291 0.0955373 0.144891
22 2 0.54633 0.0933288 0.139723
24 3 0.549389 0.0932331 0.151463
25 4 0.559115 0.0996076 0.149878
26 4 0.553133 0.0979823 0.155145
28 5 0.560749 0.0979737 0.14929
30 5 0.553449 0.0971184 0.15733
29 5 0.55148 0.0995886 0.155699
15 4 0.463537 0.101922 0.141077
17 5 0.464238 0.103544 0.139503
18 5 0.464274 0.103067 0.143025
23 3 0.555434 0.100198 0.143856
27 5 0.560586 0.101449 0.150013
1241 715 0.98662 0.125418 0.158189
1242 715 0.980309 0.122243 0.161062
1243 714 0.977021 0.120102 0.155222
1244 713 0.980846 0.120346 0.149795
1245 712 0.979323 0.118364 0.144196
1246 714 0.986656 0.123017 0.151577
1247 786 0.977205 0.126586 0.165275
1248 718 0.986227 0.130854 0.158117
1249 718 0.991124 0.123991 0.160899
1250 788 0.981589 0.11784 0.164014
1338 458 0.594123 0.220245 0.140038
1339 714 0.588894 0.216466 0.137884
1340 713 0.592995 0.211844 0.134861
1342 714 0.599612 0.211094 0.136583
1344 89 0.593267 0.225161 0.142102
1337 458 0.599984 0.217314 0.139317
1343 89 0.604764 0.219429 0.140682
1093 85 0.107881 0.31559 0.134965
1094 85 0.113903 0.30931 0.136449
418 720 0.272797 0.444675 0.164267
1329 458 0.594793 0.118401 0.182213
1330 458 0.593357 0.112077 0.18338
1331 714 0.593235 0.110477 0.189991
1332 713 0.596111 0.116451 0.191837
1333 712 0.599063 0.116779 0.197217
1334 714 0.595846 0.122055 0.187858
1335 89 0.595165 0.120716 0.177345
1336 89 0.592336 0.10831 0.179647
406 717 0.276766 0.447484 0.19586
407 715 0.270958 0.449832 0.191446
408 714 0.272959 0.450449 0.184669
409 713 0.272896 0.445072 0.18067
410 712 0.271909 0.43929 0.182561
411 714 0.273759 0.446941 0.174304
412 717 0.272842 0.442186 0.169114
414 720 0.280931 0.45099 0.195636
415 720 0.278575 0.442595 0.194267
416 718 0.26922 0.454705 0.193153
417 718 0.266721 0.446422 0.191893
419 720 0.276862 0.438501 0.169125
420 720 0.268099 0.439553 0.169703
36 4 0.43174 0.230349 0.229499
39 5 0.432245 0.22852 0.228065
40 5 0.430962 0.231826 0.227823
34 3 0.426108 0.227914 0.233034
1234 713 0.832526 0.246866 0.228673
1235 712 0.82664 0.2457 0.227411
1231 715 0.84312 0.250906 0.2277
1236 714 0.836967 0.249586 0.224557
1238 718 0.843504 0.256249 0.228709
1239 718 0.847348 0.249361 0.224633
373 720 0.178351 0.364782 0.222327
366 714 0.177974 0.367935 0.232162
367 717 0.178937 0.369331 0.225269
374 720 0.175313 0.373005 0.223508
375 720 0.183948 0.371293 0.224363
413 720 0.275191 0.44708 0.20106
349 713 0.388775 0.0949111 0.265317
351 714 0.388706 0.0939712 0.258694
352 717 0.391866 0.0987121 0.25446
358 720 0.392186 0.0967774 0.249376
360 720 0.396933 0.0997842 0.25618
359 720 0.389066 0.10339 0.254354
31 1 0.429131 0.225077 0.238698
32 2 0.425707 0.220795 0.242848
33 3 0.435818 0.226826 0.239923
35 4 0.436611 0.232433 0.235672
37 5 0.438928 0.232878 0.235483
38 5 0.436085 0.234232 0.237132
1232 715 0.842553 0.246919 0.234177
1233 714 0.83566 0.245525 0.234376
1237 786 0.845454 0.250331 0.239295
1240 788 0.845239 0.242194 0.233724
361 717 0.176631 0.378533 0.251132
362 715 0.181815 0.373601 0.248385
363 714 0.179236 0.369961 0.24287
364 713 0.17952 0.372589 0.236712
365 712 0.181227 0.37837 0.235427
368 720 0.178643 0.381263 0.255396
369 720 0.172136 0.37593 0.252774
370 720 0.175195 0.382171 0.247333
371 718 0.18319 0.370042 0.252274
372 718 0.18639 0.376223 0.246983
335 712 0.763352 0.431096 0.261807
334 713 0.768112 0.429249 0.265259
336 714 0.773076 0.425285 0.263161
337 717 0.77345 0.423488 0.256304
343 720 0.778218 0.42107 0.25525
344 720 0.769437 0.420042 0.254978
345 720 0.773051 0.427896 0.253112
201 717 0.549059 0.464131 0.263656
205 713 0.566511 0.46535 0.265293
207 714 0.560902 0.465967 0.261757
208 720 0.54758 0.465347 0.258556
209 720 0.549754 0.458738 0.263906
206 712 0.572157 0.464576 0.263046
202 716 0.555401 0.467917 0.265686
211 719 0.554681 0.473288 0.26509
427 717 0.486846 0.0587014 0.298605
433 720 0.491319 0.0556154 0.299007
434 720 0.482492 0.0554215 0.298473
435 720 0.487089 0.0614204 0.293881
346 717 0.381476 0.0923498 0.279166
347 715 0.387186 0.0888234 0.275465
348 714 0.386471 0.0894444 0.268435
353 720 0.382045 0.0917962 0.284556
354 720 0.376649 0.0902503 0.277763
355 720 0.381407 0.0976795 0.278021
356 718 0.387169 0.0835194 0.27671
357 718 0.392012 0.0907888 0.277084
350 712 0.390902 0.09995 0.268159
425 712 0.47756 0.0688308 0.299726
1257 786 0.951141 0.26464 0.290629
1258 718 0.963287 0.26411 0.288849
1259 718 0.961607 0.264648 0.280148
1251 715 0.961182 0.267244 0.284917
1252 715 0.954013 0.269266 0.286555
1253 714 0.954893 0.275863 0.288835
1254 713 0.960947 0.278303 0.287592
1255 712 0.962835 0.284036 0.28867
1256 714 0.964529 0.27343 0.284854
1260 788 0.951012 0.26942 0.282003
41 1 0.588045 0.393461 0.284325
42 2 0.592682 0.389114 0.281703
43 3 0.583672 0.391521 0.289461
45 4 0.578872 0.396723 0.289268
47 5 0.577591 0.396603 0.291254
48 5 0.577232 0.395822 0.287805
44 3 0.587458 0.400057 0.281997
46 4 0.583554 0.403017 0.287111
49 5 0.585227 0.40389 0.288558
50 5 0.582755 0.405091 0.286304
339 720 0.759717 0.429793 0.281162
340 720 0.755738 0.431192 0.273409
333 714 0.769228 0.431169 0.271582
210 720 0.544922 0.465434 0.26694
203 715 0.557898 0.46641 0.272742
204 714 0.564821 0.465667 0.271723
213 718 0.555815 0.461774 0.274715
331 717 0.758736 0.433527 0.277318
332 715 0.765279 0.436312 0.27446
338 720 0.755768 0.437507 0.279561
342 718 0.764251 0.440221 0.270794
341 718 0.76817 0.43864 0.278448
212 718 0.556829 0.470466 0.276224
426 714 0.486463 0.0631897 0.304092
421 717 0.472761 0.0778826 0.312482
422 715 0.479685 0.0785932 0.309274
423 714 0.483076 0.0723666 0.309062
424 713 0.481947 0.0681245 0.303998
428 720 0.470223 0.0827003 0.31267
429 720 0.473153 0.0759918 0.317576
430 720 0.469633 0.0744457 0.309631
431 718 0.482701 0.0820694 0.31219
432 718 0.479261 0.0807197 0.304267
1321 458 0.121799 0.0948706 0.347798
1324 713 0.113047 0.0965404 0.343419
1325 712 0.108985 0.0963603 0.338812
1326 714 0.117253 0.0911755 0.344337
1327 89 0.126686 0.0928586 0.348917
1322 458 0.119607 0.10085 0.349501
1323 714 0.113253 0.102122 0.347435
1328 89 0.122374 0.104575 0.352262
59 5 0.893643 0.177191 0.398117
60 5 0.895432 0.180105 0.399087
395 712 0.417024 0.290386 0.397788
397 717 0.430263 0.288652 0.394352
404 720 0.428527 0.284019 0.39206
405 720 0.428512 0.292831 0.391311
403 720 0.435711 0.288678 0.394276
4 3 0.598509 0.49635 0.37749
1 1 0.603964 0.494163 0.373653
2 2 0.603305 0.489156 0.368987
3 3 0.610119 0.497342 0.374804
8 5 0.609631 0.499021 0.382529
51 1 0.888126 0.173938 0.407791
52 2 0.882312 0.172666 0.411235
53 3 0.893552 0.169488 0.407961
54 3 0.888925 0.179751 0.403939
55 4 0.898764 0.173518 0.405365
56 4 0.894629 0.178112 0.400075
58 5 0.89971 0.17443 0.407344
57 5 0.90057 0.172096 0.404805
464 720 0.558641 0.264449 0.421534
463 720 0.567423 0.264711 0.422552
62 2 0.215091 0.296095 0.418417
391 717 0.409101 0.288558 0.411983
392 715 0.414096 0.294235 0.410733
393 714 0.420378 0.291717 0.408607
394 713 0.4214 0.29034 0.402128
396 714 0.4279 0.289211 0.401023
398 720 0.404314 0.290543 0.413665
399 720 0.410941 0.285145 0.41581
400 720 0.408226 0.285691 0.40743
401 718 0.414863 0.297041 0.415339
402 718 0.412104 0.29776 0.407074
465 720 0.563364 0.270885 0.417728
462 718 0.554671 0.289103 0.429309
454 713 0.557586 0.276615 0.428098
455 712 0.553414 0.277634 0.423677
456 714 0.562177 0.27175 0.428006
457 717 0.562923 0.267762 0.422181
70 5 0.204595 0.311474 0.423742
69 5 0.206788 0.311766 0.420961
68 5 0.213259 0.309579 0.430068
67 5 0.214519 0.31256 0.428595
66 4 0.206748 0.310735 0.423104
61 1 0.213039 0.301996 0.421288
63 3 0.217606 0.306432 0.424244
64 3 0.206277 0.303875 0.42141
65 4 0.213285 0.310647 0.427945
461 718 0.557669 0.289801 0.437493
460 720 0.54489 0.28226 0.433589
459 720 0.547962 0.283153 0.441815
458 720 0.545174 0.290225 0.437358
451 717 0.547803 0.285476 0.43689
452 715 0.554871 0.286554 0.43413
453 714 0.558378 0.280414 0.433562
379 713 0.952739 0.100877 0.495659
380 712 0.958305 0.100403 0.493054
381 714 0.947305 0.103403 0.492686
382 717 0.947568 0.105115 0.485802
388 720 0.942563 0.106196 0.483938
389 720 0.95069 0.109516 0.485014
390 720 0.949617 0.101008 0.482852
436 717 0.816165 0.361394 0.490579
437 715 0.823315 0.359109 0.492125
438 714 0.8252 0.353616 0.488052
439 713 0.82763 0.354703 0.481901
440 712 0.827727 0.360178 0.479073
441 714 0.830198 0.349046 0.479421
443 720 0.814748 0.365577 0.49377
444 720 0.812601 0.35736 0.491419
445 720 0.815711 0.363007 0.485392
446 718 0.823649 0.357551 0.497335
447 718 0.826818 0.363247 0.491507
449 720 0.830715 0.350279 0.46913
450 720 0.837771 0.35315 0.473624
442 717 0.833951 0.34926 0.473399
448 720 0.83645 0.34449 0.472569
376 717 0.960876 0.0990978 0.509156
377 715 0.955837 0.0947098 0.505402
378 714 0.95118 0.0986528 0.501786
383 720 0.964393 0.0960227 0.511958
386 718 0.953069 0.0916519 0.508961
387 718 0.958427 0.0912563 0.502064
384 720 0.958349 0.102394 0.512681
385 720 0.963734 0.102188 0.505691
511 717 0.216028 0.399868 0.515278
515 712 0.232249 0.398003 0.514239
518 720 0.211963 0.396831 0.513293
520 720 0.2191 0.396688 0.518466
522 718 0.222149 0.398941 0.506365
512 715 0.220184 0.402881 0.509587
513 714 0.225454 0.40691 0.5121
514 713 0.231258 0.404076 0.513887
519 720 0.213841 0.403776 0.518381
521 718 0.217002 0.406007 0.506458
516 714 0.235885 0.408793 0.514935
517 717 0.24266 0.406893 0.515871
523 720 0.245885 0.411282 0.515717
524 720 0.243335 0.404422 0.520685
525 720 0.24428 0.403469 0.511943
1141 407 0.493388 0.194125 0.533336
1137 80 0.489083 0.182703 0.550555
1138 431 0.491968 0.185628 0.5441
1139 408 0.492407 0.192688 0.544651
1140 406 0.493127 0.196349 0.539067
1143 85 0.484013 0.184517 0.551406
1144 85 0.488864 0.177264 0.550262
1145 85 0.492128 0.184048 0.554873
1146 410 0.496921 0.183555 0.543126
1147 410 0.488757 0.184265 0.539906
672 718 0.890396 0.190864 0.560916
662 715 0.889795 0.189686 0.56621
664 713 0.897359 0.180618 0.564449
665 712 0.894781 0.17893 0.559111
670 720 0.882468 0.181767 0.564814
668 720 0.878944 0.189786 0.565806
675 720 0.907739 0.175622 0.558043
674 720 0.904337 0.168796 0.562522
673 720 0.911723 0.172742 0.56537
667 717 0.906875 0.173596 0.563035
1142 80 0.493647 0.203815 0.540445
1148 85 0.498744 0.205117 0.541874
1149 85 0.492308 0.206673 0.535999
1150 85 0.490268 0.205256 0.544468
629 720 0.631404 0.30526 0.566225
630 720 0.631962 0.31338 0.562765
1279 718 0.799362 0.44518 0.559235
1271 715 0.803421 0.448474 0.560765
1272 715 0.804169 0.454552 0.55622
1273 714 0.811141 0.454781 0.555308
1274 713 0.814262 0.449301 0.557404
1275 712 0.820236 0.44807 0.55678
1276 714 0.809701 0.445359 0.560184
1277 786 0.800934 0.459899 0.558901
1278 718 0.802643 0.449978 0.565945
1280 788 0.801848 0.453584 0.551381
486 714 0.486388 0.0657001 0.586417
487 717 0.489245 0.0635628 0.592553
493 720 0.493227 0.0599618 0.591622
495 720 0.4855 0.0611592 0.595711
488 720 0.466773 0.0820429 0.578283
481 717 0.471804 0.0801293 0.579126
482 715 0.471802 0.0724662 0.579238
483 714 0.478337 0.0699037 0.580262
484 713 0.48074 0.0692858 0.586487
485 712 0.477993 0.0714682 0.591554
489 720 0.475008 0.0820241 0.575148
490 720 0.473599 0.0821495 0.583861
491 718 0.469963 0.0705704 0.574473
492 718 0.468391 0.0706133 0.583073
494 720 0.491343 0.0677857 0.595292
661 717 0.882946 0.186494 0.567487
663 714 0.895053 0.185481 0.568443
669 720 0.882203 0.185524 0.572796
671 718 0.89014 0.19441 0.568903
666 714 0.90302 0.178085 0.566956
616 717 0.611369 0.316703 0.58244
617 715 0.616759 0.321468 0.5798
618 714 0.622965 0.318134 0.578978
619 713 0.624205 0.314736 0.573336
620 712 0.620049 0.313597 0.568929
621 714 0.630668 0.313034 0.57306
623 720 0.606639 0.319325 0.583104
624 720 0.612811 0.314596 0.587253
625 720 0.610534 0.312585 0.578966
626 718 0.61748 0.32555 0.583336
627 718 0.615164 0.323741 0.575102
622 717 0.633307 0.310301 0.567064
628 720 0.638744 0.310068 0.567335
607 717 0.778593 0.387208 0.59972
613 720 0.779157 0.384435 0.595063
615 720 0.780797 0.39215 0.599018
1151 80 0.699045 0.0921843 0.628363
1152 431 0.6916 0.0927663 0.626693
1153 408 0.690805 0.0954477 0.620173
1154 406 0.684843 0.0979759 0.618396
1155 407 0.679861 0.0982651 0.621997
1160 410 0.689207 0.0878702 0.626965
1161 410 0.689173 0.0959931 0.630362
1162 85 0.68392 0.0964247 0.607764
1158 85 0.699734 0.0899828 0.633301
1157 85 0.701411 0.0970957 0.628398
1159 85 0.701649 0.0890582 0.624733
1110 431 0.180101 0.132532 0.612249
1116 85 0.180882 0.131149 0.601523
1117 85 0.172564 0.131436 0.604467
1118 410 0.180593 0.12721 0.613348
1156 80 0.684711 0.100551 0.611237
1163 85 0.680682 0.104166 0.610584
1164 85 0.689413 0.103012 0.610005
1119 410 0.185048 0.13478 0.612737
1109 80 0.177549 0.133549 0.605107
1111 408 0.175597 0.135509 0.616852
1112 406 0.177681 0.136735 0.623117
1113 407 0.183307 0.135557 0.625315
1114 80 0.172281 0.139815 0.627506
1115 85 0.177331 0.138853 0.603865
1120 85 0.168976 0.135931 0.629433
1121 85 0.17452 0.14244 0.631727
1122 85 0.169319 0.143394 0.624661
1430 85 0.308842 0.23228 0.627718
1423 124 0.309033 0.234341 0.63276
1431 85 0.313131 0.237938 0.632882
1136 85 0.805297 0.262334 0.629659
529 713 0.382382 0.297468 0.629043
530 712 0.378734 0.298454 0.624174
531 714 0.387322 0.292963 0.629297
532 717 0.389104 0.289399 0.623423
538 720 0.393748 0.286662 0.624217
539 720 0.38521 0.285832 0.62206
540 720 0.389851 0.292808 0.619229
535 720 0.368681 0.301819 0.633123
537 718 0.378341 0.30961 0.630513
111 1 0.945473 0.329541 0.623405
112 2 0.948733 0.323561 0.622463
114 3 0.938981 0.329814 0.626061
113 3 0.948478 0.335669 0.621764
115 4 0.944253 0.340255 0.625119
116 4 0.937089 0.336454 0.624482
117 5 0.944721 0.342419 0.624282
118 5 0.94536 0.340503 0.627207
119 5 0.936003 0.336167 0.622387
120 5 0.935157 0.336976 0.625743
601 717 0.78411 0.385171 0.626633
602 715 0.789126 0.385917 0.620888
603 714 0.786588 0.383136 0.614877
604 713 0.7826 0.386801 0.610929
605 712 0.780265 0.392306 0.612422
606 714 0.78178 0.383746 0.605035
608 720 0.786129 0.387272 0.631237
609 720 0.782953 0.379926 0.627548
610 720 0.77945 0.387765 0.625503
611 718 0.793744 0.383312 0.622145
612 718 0.790442 0.391164 0.62017
614 720 0.77327 0.38783 0.600724
586 717 0.178435 0.0531107 0.650764
587 715 0.172394 0.0566009 0.653935
588 714 0.173912 0.0589649 0.660449
589 713 0.17687 0.0649275 0.661228
593 720 0.1772 0.0512673 0.645788
594 720 0.180041 0.0488644 0.653776
595 720 0.182644 0.0565432 0.650288
596 718 0.168252 0.0530842 0.654329
597 718 0.17067 0.0606917 0.650762
590 712 0.179123 0.0683664 0.656636
600 720 0.176104 0.0770118 0.666438
102 2 0.576706 0.165095 0.665873
106 4 0.56346 0.176106 0.662838
109 5 0.564594 0.177457 0.661243
110 5 0.561336 0.17615 0.6618
104 3 0.566326 0.16974 0.661648
101 1 0.571618 0.169704 0.666259
1427 416 0.295734 0.23298 0.644436
1424 124 0.310232 0.228875 0.637968
1425 431 0.308703 0.2318 0.644831
1432 85 0.306869 0.224685 0.637021
1433 85 0.315324 0.226945 0.637737
551 718 0.736968 0.219467 0.666002
1426 415 0.301654 0.236873 0.643184
1428 416 0.302549 0.24324 0.646375
1429 431 0.302503 0.237907 0.634438
1131 85 0.798381 0.241697 0.639014
1123 80 0.803513 0.241875 0.640844
1124 431 0.805143 0.248705 0.643883
1125 408 0.804119 0.253791 0.639044
1126 406 0.806849 0.259843 0.640053
1127 407 0.810305 0.261451 0.644884
1128 80 0.805233 0.264804 0.634514
1129 85 0.806852 0.240761 0.636681
1130 85 0.804129 0.237931 0.644556
1132 410 0.801984 0.24965 0.648231
1133 410 0.81033 0.248739 0.645575
1134 85 0.800301 0.266984 0.635316
1135 85 0.808913 0.268825 0.634421
526 717 0.370889 0.305029 0.636936
527 715 0.378138 0.306789 0.63518
528 714 0.382172 0.300969 0.634753
533 720 0.367849 0.309535 0.637304
534 720 0.370614 0.302424 0.641713
536 718 0.380222 0.310017 0.639042
1281 715 0.945939 0.0574009 0.699674
1288 718 0.941781 0.0580227 0.696205
1289 718 0.950573 0.0587918 0.697172
591 714 0.176743 0.0667231 0.667671
592 717 0.178678 0.0733026 0.669503
598 720 0.177413 0.0742541 0.674717
599 720 0.184051 0.0739905 0.668876
105 4 0.564776 0.176882 0.670828
107 5 0.564616 0.178909 0.672039
108 5 0.563677 0.175502 0.67242
103 3 0.571463 0.1746 0.671288
553 720 0.724089 0.198261 0.684225
471 714 0.62805 0.231003 0.682074
472 717 0.629466 0.226553 0.676727
479 720 0.625047 0.223648 0.675397
480 720 0.631116 0.229289 0.672304
478 720 0.633435 0.223102 0.678151
544 713 0.729775 0.212669 0.678815
545 712 0.726204 0.217014 0.681337
546 714 0.729439 0.206134 0.680202
547 717 0.724218 0.203706 0.684353
552 718 0.729765 0.222192 0.670141
554 720 0.724947 0.205295 0.689518
555 720 0.719369 0.205549 0.682659
541 717 0.739037 0.224983 0.675041
542 715 0.734755 0.220131 0.670936
543 714 0.73436 0.213772 0.674054
548 720 0.739352 0.229831 0.672576
549 720 0.744105 0.223078 0.675651
550 720 0.736904 0.225752 0.679999
466 717 0.613854 0.246701 0.687172
467 715 0.6214 0.246865 0.685845
468 714 0.624237 0.24038 0.686305
469 713 0.624105 0.236297 0.680993
470 712 0.621017 0.237408 0.675776
473 720 0.611735 0.251711 0.68686
474 720 0.612787 0.244733 0.692139
475 720 0.611298 0.243565 0.683518
476 718 0.623835 0.250049 0.689535
477 718 0.622433 0.249069 0.680961
496 717 0.941219 0.497357 0.683424
498 714 0.950279 0.498231 0.691529
499 713 0.955996 0.495836 0.688982
500 712 0.957515 0.495963 0.68301
501 714 0.959925 0.493572 0.693901
504 720 0.938216 0.494259 0.686751
505 720 0.944073 0.494062 0.680151
502 717 0.966633 0.491753 0.692456
508 720 0.969397 0.490928 0.697079
509 720 0.966808 0.487174 0.6895
510 720 0.96916 0.495698 0.68966
1282 715 0.944761 0.061321 0.706109
1283 714 0.942705 0.0562299 0.710507
1284 713 0.943726 0.0501104 0.708128
1285 712 0.942779 0.0448499 0.711132
1286 714 0.946072 0.0507464 0.701951
1287 786 0.940656 0.0666102 0.704919
1290 788 0.949465 0.0633743 0.707954
130 5 0.569358 0.081586 0.730733
129 5 0.569416 0.0788987 0.728407
123 3 0.580186 0.0727904 0.730126
125 4 0.578844 0.0797423 0.730034
126 4 0.570712 0.079714 0.730227
127 5 0.580158 0.0807121 0.728321
128 5 0.580139 0.0805151 0.73187
91 1 0.598797 0.326079 0.718551
92 2 0.598966 0.326824 0.711718
94 3 0.592736 0.325465 0.722037
96 4 0.59482 0.326609 0.728707
99 5 0.594479 0.328952 0.72893
100 5 0.59307 0.325922 0.730141
93 3 0.604678 0.325898 0.72238
95 4 0.602275 0.323356 0.728537
97 5 0.603949 0.323712 0.730171
98 5 0.602618 0.32102 0.728269
122 2 0.574993 0.06407 0.736771
121 1 0.574905 0.0703991 0.734086
124 3 0.569533 0.0747838 0.735173
560 712 0.0935913 0.431392 0.762096
557 715 0.107351 0.431723 0.763338
563 720 0.112064 0.430606 0.753618
567 718 0.105433 0.426615 0.763432
566 718 0.11206 0.431668 0.766076
559 713 0.0962828 0.435302 0.766028
565 720 0.103957 0.434053 0.753267
556 717 0.108601 0.433985 0.756123
564 720 0.110747 0.438991 0.755989
1494 416 0.420534 0.493939 0.764565
646 717 0.484441 0.0933234 0.794831
647 715 0.488258 0.0995983 0.79702
653 720 0.479793 0.0946729 0.792329
654 720 0.483194 0.0902004 0.799117
655 720 0.487412 0.0903427 0.791365
649 713 0.499826 0.0966538 0.79679
650 712 0.500017 0.0961074 0.790653
652 717 0.51166 0.0961088 0.79804
659 720 0.512556 0.0912775 0.795676
657 718 0.489268 0.102814 0.792729
660 720 0.512326 0.100008 0.794282
234 720 0.938834 0.297843 0.792619
235 720 0.938197 0.297021 0.783905
240 717 0.554255 0.309993 0.778961
241 716 0.558206 0.311073 0.785434
242 715 0.554152 0.310162 0.791839
243 714 0.558533 0.306362 0.795823
244 713 0.563782 0.304026 0.792463
246 714 0.563228 0.306205 0.786196
247 720 0.55743 0.310624 0.77458
248 720 0.552111 0.304996 0.778709
249 720 0.550179 0.313578 0.778589
250 719 0.560564 0.315988 0.785423
251 718 0.552934 0.314919 0.794209
252 718 0.549548 0.307371 0.79098
245 712 0.568252 0.300483 0.794698
230 714 0.928166 0.311841 0.779933
231 713 0.924099 0.308317 0.783851
232 712 0.917976 0.308318 0.783681
233 714 0.927937 0.304735 0.787947
227 717 0.939319 0.300535 0.787908
228 716 0.934704 0.306645 0.787711
229 715 0.934981 0.310647 0.781216
236 720 0.94452 0.30205 0.78739
237 719 0.935714 0.309926 0.791947
238 718 0.937741 0.315315 0.781779
239 718 0.937154 0.307777 0.777121
570 720 0.0848011 0.433031 0.772094
561 714 0.0930522 0.43912 0.77047
562 717 0.0860584 0.43829 0.771358
568 720 0.0843761 0.441055 0.775742
569 720 0.0833196 0.440115 0.76701
558 714 0.102902 0.43612 0.766682
1492 415 0.418194 0.499459 0.768512
1495 431 0.420119 0.497927 0.777011
644 720 0.0879551 0.0655085 0.817266
263 719 0.288322 0.0519804 0.833309
634 713 0.0904123 0.0696058 0.830279
635 712 0.0843071 0.0704511 0.83023
636 714 0.0942287 0.0688119 0.824843
637 717 0.0913495 0.0696214 0.818405
643 720 0.0952488 0.0697432 0.814601
645 720 0.0885471 0.0742935 0.8181
648 714 0.49429 0.0979135 0.80035
651 714 0.505143 0.0963801 0.800841
658 720 0.515409 0.0968513 0.801923
656 718 0.48518 0.102504 0.800451
1261 715 0.112888 0.145866 0.821167
1262 715 0.111185 0.138436 0.821396
1263 714 0.112778 0.136829 0.828057
1264 713 0.113818 0.142159 0.831885
1266 714 0.113419 0.147515 0.827984
1267 786 0.114274 0.135163 0.816297
1268 718 0.117698 0.146705 0.818744
1269 718 0.109078 0.14883 0.818643
1270 788 0.105825 0.137709 0.820701
1173 85 0.951695 0.194685 0.832926
1349 712 0.0291314 0.236382 0.816089
1351 89 0.0477897 0.233561 0.807619
1345 458 0.0432709 0.236052 0.809218
1346 458 0.040365 0.241114 0.806154
1347 714 0.0347043 0.243289 0.809234
1348 713 0.0344869 0.237875 0.813473
1350 714 0.0400292 0.234043 0.814854
1352 89 0.0420916 0.243493 0.801624
631 717 0.0879656 0.0657208 0.845464
639 720 0.0914631 0.0616454 0.846381
640 720 0.0838828 0.0637986 0.842405
253 717 0.294527 0.0442497 0.837693
254 716 0.288727 0.0492433 0.838006
255 715 0.28197 0.04618 0.839807
256 714 0.279471 0.0507906 0.844499
257 713 0.28401 0.0552298 0.846496
258 712 0.283184 0.0596757 0.850628
259 714 0.289644 0.0538891 0.843209
260 720 0.299216 0.0467412 0.836478
261 720 0.295236 0.041673 0.842436
262 720 0.293606 0.0404874 0.833872
264 718 0.278672 0.0457606 0.835486
265 718 0.282488 0.0412766 0.842134
632 715 0.0914494 0.0716058 0.842005
633 714 0.0942378 0.0696525 0.835782
638 720 0.0858903 0.067262 0.85026
641 718 0.0954833 0.0734545 0.845166
642 718 0.0879707 0.0757557 0.841331
1408 85 0.798381 0.131835 0.86467
1265 712 0.114843 0.142135 0.837931
1404 415 0.79764 0.147965 0.857528
1405 416 0.791471 0.151182 0.859364
1407 431 0.796204 0.139245 0.857098
1401 124 0.800628 0.136346 0.862594
1403 431 0.803103 0.148288 0.864469
1406 416 0.801193 0.150031 0.851643
1409 85 0.805442 0.13492 0.860464
1170 80 0.93273 0.198664 0.847946
1176 85 0.930065 0.19409 0.846645
1165 80 0.95395 0.197295 0.837148
1166 431 0.950571 0.195359 0.843735
1167 408 0.943638 0.196829 0.843399
1168 406 0.940103 0.197177 0.849098
1169 407 0.942363 0.196389 0.854767
1172 85 0.959254 0.196046 0.837278
1174 410 0.95127 0.190041 0.844735
1175 410 0.952883 0.198123 0.847831
1177 85 0.930481 0.200762 0.852448
1178 85 0.932116 0.202268 0.843907
1171 85 0.953536 0.202658 0.836262
1297 786 0.438998 0.296688 0.843374
1300 788 0.44629 0.297166 0.849999
1292 715 0.444546 0.299915 0.845623
1291 715 0.442824 0.307095 0.847532
1293 714 0.450011 0.300874 0.841299
1294 713 0.45243 0.307061 0.841429
1295 712 0.457413 0.309067 0.838472
1296 714 0.448533 0.310635 0.845442
1298 718 0.438492 0.308883 0.84475
1299 718 0.441893 0.307697 0.852865
1437 415 0.82887 0.392059 0.847791
1438 416 0.824214 0.38839 0.843713
1439 416 0.828193 0.392082 0.854938
1435 124 0.839005 0.394523 0.84032
1436 431 0.837049 0.389467 0.845668
1443 85 0.836788 0.393041 0.835561
1444 85 0.844409 0.394657 0.839614
1440 431 0.829102 0.400419 0.844905
1434 124 0.83625 0.401341 0.842409
1441 85 0.836384 0.404893 0.838276
1442 85 0.839304 0.403416 0.846423
1410 85 0.7971 0.142188 0.87093
1402 124 0.801655 0.141682 0.86797
1411 85 0.805674 0.140346 0.871402
582 718 0.806083 0.463665 0.896339
574 713 0.795817 0.471215 0.898215
575 712 0.794043 0.467317 0.893783
584 720 0.78239 0.474651 0.897818
571 717 0.809301 0.471769 0.889877
572 715 0.807444 0.468933 0.89675
573 714 0.802186 0.472644 0.899733
578 720 0.813377 0.468917 0.887655
579 720 0.810905 0.47696 0.890274
580 720 0.805051 0.471561 0.886468
1413 124 0.892767 0.17459 0.927054
1414 431 0.89041 0.181743 0.928183
1415 415 0.894332 0.186073 0.92155
1416 416 0.88978 0.186265 0.915981
1417 416 0.897217 0.192138 0.924083
1421 85 0.889735 0.172306 0.923136
1422 85 0.892137 0.171573 0.931551
1412 124 0.90007 0.174846 0.924812
1418 431 0.900833 0.180388 0.919627
1419 85 0.901687 0.170067 0.922748
1420 85 0.903278 0.175929 0.929088
1105 410 0.732636 0.220878 0.915112
1095 80 0.738016 0.211681 0.913548
1096 431 0.736532 0.218981 0.911797
1097 408 0.742431 0.222862 0.912487
1098 406 0.741903 0.229544 0.912896
1099 407 0.736641 0.232733 0.912788
1100 80 0.748638 0.233034 0.913501
1101 85 0.739588 0.211218 0.918747
1102 85 0.733562 0.20861 0.912888
1103 85 0.741962 0.20965 0.910381
1104 410 0.734673 0.219364 0.906681
1108 85 0.751998 0.230163 0.916687
1106 85 0.750921 0.233591 0.908583
1107 85 0.748029 0.237985 0.915703
576 714 0.791693 0.474403 0.902409
577 717 0.784771 0.472829 0.902372
583 720 0.782297 0.475126 0.906649
585 720 0.784 0.467436 0.902672
581 718 0.811772 0.469168 0.900052
81 1 0.243842 0.17306 0.992604
82 2 0.245119 0.168014 0.988111
83 3 0.245521 0.179734 0.991215
84 3 0.240796 0.171791 0.998799
85 4 0.245002 0.182683 0.997632
87 5 0.244983 0.185033 0.997351
89 5 0.236699 0.178464 0.99998
88 5 0.24723 0.182501 0.998436
71 1 0.910452 0.330156 0.97776
72 2 0.910235 0.325195 0.973004
74 3 0.907012 0.32957 0.98385
80 5 0.906558 0.336221 0.988494
73 3 0.91412 0.336058 0.976757
75 4 0.914369 0.338696 0.983323
76 4 0.907169 0.336245 0.98621
77 5 0.915074 0.340951 0.983172
78 5 0.916415 0.337802 0.984133
79 5 0.90512 0.337108 0.985367
676 717 0.0908792 0.647476 0.0249199
677 715 0.0977581 0.6508 0.0243138
678 714 0.0983131 0.654507 0.0182905
679 713 0.0960214 0.660799 0.0180176
680 712 0.0927089 0.663535 0.0224382
681 714 0.0980963 0.663769 0.0123906
683 720 0.0905347 0.644592 0.0295301
684 720 0.0899711 0.644088 0.020751
685 720 0.0869057 0.651208 0.0249713
687 718 0.0987207 0.653997 0.0286302
686 718 0.101639 0.646976 0.0243146
682 717 0.0971108 0.670749 0.0115544
689 720 0.0918256 0.671885 0.0108439
690 720 0.098887 0.673502 0.0159181
688 720 0.09986 0.672534 0.00720156
846 714 0.0639179 0.721957 0.00217078
847 717 0.0651157 0.728845 0.000941286
854 720 0.0651255 0.731677 0.00560161
841 717 0.0719044 0.705696 0.0142424
842 715 0.0717594 0.706841 0.00666611
843 714 0.0669825 0.711779 0.00490008
844 713 0.0686505 0.718266 0.00512786
845 712 0.0739098 0.720463 0.00747435
848 720 0.0755481 0.701857 0.0155393
849 720 0.0670341 0.70407 0.0160654
850 720 0.0732653 0.710268 0.0168816
851 718 0.0704189 0.702203 0.00414146
852 718 0.0767144 0.708229 0.00484999
1353 458 0.0770342 0.910935 0.0319191
1354 458 0.0722795 0.914948 0.0297402
1355 714 0.0736802 0.921551 0.030576
1359 89 0.0769352 0.905536 0.0317551
1360 89 0.0676245 0.913413 0.0274748
714 720 0.528008 0.966242 0.00548789
1474 85 0.428657 0.999133 0.0256178
1467 124 0.433733 0.999024 0.0276005
1468 124 0.434723 0.993173 0.0324197
1477 85 0.434824 0.988393 0.0298012
1475 85 0.437117 0.998512 0.023354
706 717 0.526209 0.971364 0.00594315
707 715 0.526957 0.97391 0.0131329
713 720 0.520983 0.971451 0.00440478
715 720 0.529036 0.974472 0.0024688
716 718 0.524069 0.970748 0.0165006
717 718 0.524918 0.978951 0.0135959
708 714 0.533733 0.973758 0.0152262
709 713 0.537798 0.978875 0.0137435
710 712 0.536354 0.983545 0.00998948
711 714 0.54352 0.97832 0.0171651
712 717 0.548135 0.983714 0.0171525
718 720 0.552026 0.982869 0.0208716
719 720 0.5505 0.984233 0.0122667
720 720 0.545638 0.988413 0.0183591
151 1 0.130014 0.527272 0.0601995
153 3 0.132603 0.53263 0.0564765
154 3 0.123026 0.526624 0.0603663
156 4 0.121085 0.530891 0.0550592
159 5 0.120979 0.529376 0.0532286
160 5 0.11876 0.531276 0.0552521
152 2 0.134123 0.522868 0.0635156
155 4 0.126831 0.536628 0.0555569