LAMMPS data file generated by OpenBabel
13 atoms
13 bonds
23 angles
28 dihedrals
0 impropers
3 atom types
3 bond types
7 angle types
11 dihedral types
0 improper types
 -16.50320   25.21980 xlo xhi
 -16.50320   25.21980 ylo yhi
 -16.50320   25.21980 zlo zhi



Masses

1 12.0107 # C
2 1.00794 # H
3 15.9994 # O


Atoms

1       1    1    0.00000   17.83120  -14.73770   -0.01630 #   C
2       1    1    0.00000   19.92700  -14.74270    0.01450 #   C
3       1    1    0.00000   20.69340  -12.68660    0.04050 #   C
4       1    3   -0.82000   22.76620  -13.08220    0.03850 #   O
5       1    1    0.00000   23.04790  -14.54730   -0.03580 #   C
6       1    3   -0.82000   24.71980  -15.12810   -0.06640 #   O
7       1    3   -0.82000   21.22020  -15.21250   -0.06820 #   O
8       1    2    0.41000   17.37090  -13.42230   -0.05690 #   H
9       1    2    0.41000   16.85360  -15.02170    0.05030 #   H
10      1    2    0.41000   17.58580  -16.00320   -0.07110 #   H
11      1    2    0.41000   20.27710  -15.70780    0.07970 #   H
12      1    2    0.41000   20.19720  -12.17000    0.11600 #   H
13      1    2    0.41000   20.44260  -11.66060   -0.02470 #   H


Bonds

1       1    1    2 #  C: C
2       1    2    3 #  C: C
3       3    4    3 #  O: C
4       3    4    5 #  O: C
5       3    6    5 #  O: C
6       3    7    5 #  O: C
7       3    7    2 #  O: C
8       2    1    8 #  C: H
9       2    1    9 #  C: H
10      2    1   10 #  C: H
11      2    2   11 #  C: H
12      2    3   12 #  C: H
13      2    3   13 #  C: H


Angles

1       2    2    1    8 #  C: C: H
2       2    2    1    9 #  C: C: H
3       2    2    1   10 #  C: C: H
4       4    9    1    8 #  H: C: H
5       4   10    1    8 #  H: C: H
6       4   10    1    9 #  H: C: H
7       1    3    2    1 #  C: C: C
8       5    7    2    1 #  O: C: C
9       2    1    2   11 #  C: C: H
10      5    7    2    3 #  O: C: C
11      2    3    2   11 #  C: C: H
12      6    7    2   11 #  O: C: H
13      5    4    3    2 #  O: C: C
14      2    2    3   12 #  C: C: H
15      2    2    3   13 #  C: C: H
16      6    4    3   12 #  O: C: H
17      6    4    3   13 #  O: C: H
18      4   13    3   12 #  H: C: H
19      3    5    4    3 #  C: O: C
20      7    6    5    4 #  O: C: O
21      7    7    5    4 #  O: C: O
22      7    7    5    6 #  O: C: O
23      3    5    7    2 #  C: O: C


Dihedrals

1       1    3    1    2    8 #  C: C: C: H
2       8    7    1    2    8 #  O: C: C: H
3       6   11    1    2    8 #  H: C: C: H
4       1    3    1    2    9 #  C: C: C: H
5       8    7    1    2    9 #  O: C: C: H
6       6   11    1    2    9 #  H: C: C: H
7       1    3    1    2   10 #  C: C: C: H
8       8    7    1    2   10 #  O: C: C: H
9       6   11    1    2   10 #  H: C: C: H
10      7    4    2    3    1 #  O: C: C: C
11      1    1    2    3   12 #  C: C: C: H
12      1    1    2    3   13 #  C: C: C: H
13      9    4    2    3    7 #  O: C: C: O
14      8    7    2    3   12 #  O: C: C: H
15      8    7    2    3   13 #  O: C: C: H
16      8    4    2    3   11 #  O: C: C: H
17      6   12    2    3   11 #  H: C: C: H
18      6   13    2    3   11 #  H: C: C: H
19      2    5    3    4    2 #  C: C: O: C
20      3    5    3    4   12 #  C: C: O: H
21      3    5    3    4   13 #  C: C: O: H
22     11    6    4    5    3 #  O: O: C: C
23     11    7    4    5    3 #  O: O: C: C
24     10    4    5    7    2 #  O: C: O: C
25     10    6    5    7    2 #  O: C: O: C
26      4    1    7    2    5 #  C: O: C: C
27      4    3    7    2    5 #  C: O: C: C
28      5    5    7    2   11 #  C: O: C: H