ITEM: TIMESTEP
1000
ITEM: NUMBER OF ATOMS
2070
ITEM: BOX BOUNDS pp pp pp
-1.0009599645108055e+02 1.0009599645108055e+02
-1.0000000000000000e+02 1.0000000000000000e+02
-1.0000000000000000e+02 1.0000000000000000e+02
ITEM: ATOMS x y z type id
61.5444 -25.4389 -0.923321 718 447
-54.7386 -77.2607 -0.620902 85 1117
-54.0459 -78.0939 -0.841259 80 1109
63.8791 -24.7357 -0.396923 720 443
26.7666 -62.4702 -99.7612 714 1331
19.3725 -58.184 -93.7804 348 1920
51.2299 -57.6256 -96.4466 726 1511
51.2759 -59.1586 -95.9682 727 1512
51.6848 -57.5506 -94.9075 727 1513
52.6056 -57.8888 -97.2092 727 1514
51.1654 -56.0815 -96.8354 727 1515
52.3172 -56.9875 -95.4699 727 1516
49.8791 -57.4027 -95.6067 727 1517
50.4607 -58.7112 -94.1097 348 1518
24.1309 -46.2225 -94.8908 714 1339
24.7036 -48.2592 -94.3808 89 1344
24.1478 -47.3673 -94.123 458 1338
24.1158 -44.4112 -93.6946 712 1341
23.6873 -45.5624 -93.8246 713 1340
90.8862 -87.0341 -91.6149 348 1526
91.8513 -84.8323 -90.4378 726 1519
91.4594 -86.2443 -89.7793 727 1520
92.392 -85.9456 -91.4614 727 1521
92.2353 -83.4743 -91.1759 727 1523
93.1077 -85.2457 -91.3301 727 1524
90.6663 -85.0045 -91.5087 727 1525
93.0497 -84.7499 -89.3886 727 1522
59.2835 -75.6226 -87.9458 406 1874
59.4464 -76.1771 -89.3743 406 1875
59.1609 -76.4946 -90.5461 407 1877
59.0102 -74.5613 -87.3582 497 1878
57.5926 -78.3214 -87.3736 348 1880
60.2202 -77.3065 -89.2417 408 1876
60.945 -77.9268 -87.1726 909 1871
59.8974 -76.9024 -87.753 908 1872
60.4869 -75.5162 -87.2876 408 1873
61.2986 -77.5495 -87.4347 909 1879
18.5147 -57.3104 -90.6385 408 1913
18.1951 -56.3648 -91.5831 406 1914
19.2391 -55.2889 -91.9197 406 1915
19.3972 -54.3833 -92.7596 407 1917
17.0849 -56.8215 -91.2615 497 1918
19.7585 -56.3519 -90.7741 908 1912
20.6458 -57.654 -90.7584 909 1911
20.2985 -56.1059 -92.2343 408 1916
20.7973 -57.4212 -90.2624 909 1919
-4.17883 -52.2673 -87.5275 407 1887
23.3235 -48.1111 -92.2684 89 1343
23.4408 -47.3148 -92.9977 458 1337
-34.9254 -43.0402 -87.5233 714 220
-34.0648 -44.3166 -88.8284 719 224
-33.7625 -43.4959 -88.1759 716 215
-32.9645 -44.0269 -86.9824 715 216
-32.3617 -44.8969 -87.2319 718 225
-32.1188 -42.7432 -89.3906 720 223
-33.0642 -42.3914 -88.9897 717 214
-33.7077 -42.0464 -89.8049 720 221
-32.851 -41.5172 -88.3817 720 222
22.8328 -46.1029 -92.8375 714 1342
-2.38699 -53.4201 -84.054 348 1890
-2.90242 -50.1035 -84.2514 909 1881
-3.84177 -51.1555 -84.9559 908 1882
-5.2252 -50.6121 -84.4314 408 1883
-5.56712 -51.2487 -85.5989 406 1884
-4.37901 -51.8215 -86.3837 406 1885
-3.57464 -50.7111 -86.4444 408 1886
-6.70019 -51.2218 -85.0842 497 1888
-3.14753 -49.7917 -84.573 909 1889
-34.0171 -44.3173 -86.0868 714 217
-35.1096 -43.6 -86.3313 713 218
-36.095 -43.4882 -85.6072 712 219
-32.3171 -43.2603 -86.5497 718 226
-17.1301 -81.4095 -74.9314 421 1722
-15.9587 -82.6003 -74.5949 415 1727
-15.0844 -83.3145 -73.6763 416 1728
-16.1188 -83.5826 -75.8134 907 1730
-15.696 -83.4701 -73.4734 416 1729
-8.26586 -81.6308 -73.4389 712 15
-17.7671 -79.9182 -75.4827 415 1723
-14.3487 -79.5368 -75.4102 348 1721
-18.7059 -79.3851 -76.4635 416 1724
-18.8096 -79.5318 -76.4012 416 1725
-18.1335 -79.1645 -74.1502 907 1726
91.2152 -71.5512 -79.9989 788 1250
91.7721 -70.6985 -79.6081 715 1242
91.0226 -69.5985 -79.8734 786 1247
91.9101 -69.8734 -77.6004 718 1248
91.2831 -71.5318 -77.6334 718 1249
91.9859 -70.8404 -78.0982 715 1241
93.0902 -70.7629 -80.0937 714 1243
95.1747 -71.3218 -79.3369 712 1245
93.3195 -71.2884 -78.018 714 1246
93.9774 -71.1417 -79.1667 713 1244
-76.5263 -43.1232 -73.3301 85 1089
-78.1402 -41.3247 -76.5999 406 1084
-75.7819 -43.589 -74.7502 85 1088
-76.7568 -43.6836 -74.2311 80 1081
-76.7884 -44.7422 -73.9788 85 1087
-78.0588 -43.7929 -75.9003 410 1090
-77.8477 -43.1072 -75.103 431 1082
-77.5682 -41.8395 -75.5599 408 1083
-79.1901 -41.7351 -77.0899 407 1085
-78.7249 -43.1384 -74.5254 410 1091
-77.336 -40.0643 -77.1585 80 1086
-76.2387 -40.2575 -77.0595 85 1092
-77.6102 -39.8333 -78.1647 85 1093
-77.4209 -39.141 -76.5251 85 1094
-42.332 -86.338 -67.4792 85 1477
-43.4126 -85.0726 -66.952 85 1476
-42.3448 -85.3008 -67.079 124 1468
-41.3924 -83.0642 -67.251 431 1473
-42.4063 -84.1076 -68.8902 85 1474
-41.7265 -84.2818 -68.0555 124 1467
-40.8357 -84.7358 -68.5086 85 1475
-7.93289 -81.1292 -72.3783 713 14
-6.68088 -80.9119 -71.9752 714 13
-6.60443 -80.3766 -70.6789 715 12
-8.06103 -80.0578 -70.3631 715 11
-8.35486 -80.4456 -69.387 718 18
-8.73509 -80.7256 -71.4023 714 16
-6.22786 -81.1406 -69.9919 718 19
11.0945 -81.0244 -69.9972 421 1682
9.639 -81.5826 -69.2931 415 1683
8.40018 -82.3298 -69.4605 416 1684
8.6128 -82.5625 -69.5505 416 1685
10.0362 -81.8299 -67.7901 907 1686
12.092 -80.2759 -72.2273 907 1690
-8.25619 -78.9896 -70.3984 718 17
-5.95207 -79.5054 -70.6445 718 20
12.2104 -79.9439 -70.6944 415 1687
9.51729 -78.1807 -69.4779 348 1681
13.3127 -78.9993 -70.6196 416 1688
13.615 -79.6633 -70.5017 416 1689
10.3676 -68.1197 -70.4462 726 1535
11.2788 -67.2622 -69.4364 727 1536
9.35653 -67.5005 -69.3728 727 1537
10.8651 -69.4303 -69.6914 727 1538
9.38418 -68.898 -71.4268 727 1539
9.11546 -68.4673 -69.5107 727 1540
9.85612 -66.7513 -71.1183 727 1541
9.86092 -65.7025 -69.3857 348 1542
32.8943 -34.3274 -67.6046 416 1718
33.4079 -34.8147 -67.7812 416 1719
34.0473 -33.5387 -68.0039 415 1717
32.3653 -30.9817 -69.5412 348 1711
35.0267 -32.7351 -69.1427 421 1712
35.5918 -31.5478 -70.2402 415 1713
36.4592 -30.4094 -70.4988 416 1714
36.6911 -30.6301 -70.4172 416 1715
35.4463 -32.2502 -71.6429 907 1716
-40.6765 -9.72787 -67.3408 714 411
-40.4315 -8.17539 -68.6265 720 420
-38.998 -8.60049 -67.6576 720 418
-39.8528 -8.99088 -68.2081 717 412
-39.4771 -9.57734 -69.049 720 419
-41.6184 -85.1826 -65.7441 431 1469
-40.4649 -83.845 -65.943 415 1470
-40.5504 -83.022 -64.7538 416 1471
-39.2086 -84.397 -66.3699 416 1472
62.4853 -46.9768 -65.1681 713 1234
62.9539 -47.8546 -64.2655 714 1233
61.7925 -47.227 -66.1435 712 1235
63.8343 -47.2838 -63.3204 715 1232
64.8434 -47.5661 -63.6223 788 1240
63.7581 -47.5336 -61.9822 786 1237
62.9485 -45.7738 -64.8139 714 1236
62.9722 -45.36 -62.8069 718 1238
64.5509 -45.2301 -63.5801 718 1239
63.6172 -45.7922 -63.5734 715 1231
34.7977 -33.2469 -66.6541 907 1720
-42.6793 -8.96364 -63.9365 718 416
-44.1982 -10.4567 -64.5795 717 406
-43.6802 -8.51331 -65.3228 718 417
-43.1624 -9.34487 -64.8424 715 407
-42.2326 -9.87795 -65.7717 714 408
-41.2252 -9.13346 -66.2484 713 409
-40.931 -8.02516 -65.819 712 410
-44.9758 -10.1001 -63.9045 720 413
-44.6766 -10.8315 -65.4838 720 415
-43.7026 -11.3201 -64.1403 720 414
-46.9716 -46.8514 -56.0945 726 1543
-48.3162 -47.721 -55.9225 727 1544
-46.8471 -46.7698 -57.6746 727 1548
-46.2277 -48.2146 -56.4449 727 1546
-47.8245 -46.5793 -57.4212 727 1545
-47.7906 -45.5021 -55.7854 727 1549
-49.5021 -46.1979 -56.7189 348 1550
-45.6905 -45.9323 -56.3097 727 1547
-62.8501 -26.2932 -56.223 720 373
-63.6532 -27.1849 -54.9332 720 374
21.7756 -27.6124 -58.8198 85 1200
21.4684 -28.6224 -58.6623 80 1193
20.4516 -28.6101 -58.2912 85 1199
22.5728 -28.9493 -53.7745 85 1205
23.1277 -29.6387 -55.6856 406 1196
22.0967 -29.3421 -56.4766 408 1195
24.0479 -30.3924 -55.9952 407 1197
23.2713 -28.6508 -54.5741 80 1198
22.2422 -30.5979 -58.1793 410 1202
22.3776 -29.5113 -57.8409 431 1194
21.4081 -29.0687 -59.6944 85 1201
23.3934 -29.3391 -58.1338 410 1203
-61.8099 -22.2579 -53.5745 715 362
-61.8188 -23.6737 -53.5761 714 363
-62.8438 -21.9112 -53.5422 718 372
-61.3904 -21.8372 -54.4903 718 371
-61.882 -23.8079 -55.8289 712 365
-64.3738 -25.6852 -55.5584 720 375
-62.0945 -24.2794 -54.7084 713 364
-62.724 -25.4321 -54.3483 714 366
-63.4384 -26.1859 -55.3146 717 367
23.1867 -27.6687 -55.0136 85 1204
24.295 -28.7286 -54.2059 85 1206
47.9721 -8.06367 -53.0642 720 340
48.7823 -9.04214 -54.2954 720 338
28.9934 -62.0162 -99.4597 712 1333
12.9657 -0.306935 -57.2116 720 209
12.2888 -0.0508267 -54.4095 714 207
14.4009 -0.0394035 -56.2596 720 208
62.0343 -25.8256 -0.029255 715 437
-55.8422 -79.5512 -0.787044 408 1111
-36.9845 -12.5803 -6.43336 497 1908
65.9123 -93.5021 -49.719 407 1897
62.6 -91.4783 -48.4251 909 1891
63.7196 -91.5481 -49.5345 908 1892
64.4821 -90.1779 -49.3984 408 1893
64.8209 -91.0797 -50.3787 406 1894
65.3624 -92.3842 -49.7658 406 1895
64.4287 -92.7726 -48.8342 408 1896
65.2553 -90.1163 -51.035 497 1898
63.0008 -91.3318 -48.147 909 1899
62.2507 -92.9606 -51.3817 348 1900
-19.1473 -81.4453 -48.4385 717 352
-19.3136 -82.2901 -49.111 720 360
-18.0727 -81.2451 -48.4065 720 359
-19.6658 -80.5699 -48.8293 720 358
-19.6277 -81.7474 -47.1469 714 351
-18.1476 -83.4096 -46.7391 712 350
-14.0216 -54.8951 -50.0891 713 34
-14.3617 -53.6396 -49.8398 714 33
-13.9081 -55.7922 -49.268 712 35
-14.0501 -53.8127 -52.11 715 31
-13.8826 -55.0164 -51.402 714 36
-14.8933 -53.8878 -52.7977 718 38
-13.1551 -53.5489 -52.6665 718 37
-15.3285 -52.3572 -51.1295 718 39
-13.5908 -52.0574 -50.8915 718 40
-14.3522 -52.8304 -50.9869 715 32
91.0293 -41.406 -48.6091 714 1253
91.0253 -41.7671 -47.3212 713 1254
89.8037 -42.2301 -47.0376 714 1256
89.2128 -40.8942 -50.1369 786 1257
88.2303 -41.2654 -47.897 718 1258
88.3083 -42.9923 -48.2854 718 1259
88.9036 -42.0944 -48.1164 715 1251
89.8381 -41.7517 -49.2842 715 1252
90.0327 -42.6537 -49.8661 788 1260
-61.01 -20.6432 -52.4383 720 368
-60.9965 -21.733 -52.3923 717 361
-59.9755 -22.0941 -52.4884 720 369
-61.3652 -22.0299 -51.4111 720 370
49.1658 -10.5634 -47.0044 720 344
49.723 -8.0154 -53.2322 720 339
48.4722 -10.9129 -47.7726 717 337
50.2444 -10.8007 -49.8913 712 335
48.2217 -10.5838 -52.5035 718 342
48.9668 -9.83095 -52.2629 715 332
49.2277 -10.0896 -49.8771 713 334
48.7548 -9.39423 -50.9287 714 333
49.9125 -10.3544 -52.3562 718 341
48.3927 -9.97513 -48.8393 714 336
47.485 -11.0656 -47.3356 720 345
48.8237 -11.8823 -48.1234 720 343
48.8552 -8.66987 -53.2731 717 331
9.93536 -95.0444 -41.6853 415 1459
9.70056 -94.6884 -43.1086 416 1461
11.6379 -94.7636 -41.3619 431 1462
11.6271 -93.2758 -41.1568 124 1456
11.5432 -92.7487 -42.1126 85 1464
12.5804 -92.8918 -40.7795 85 1463
10.483 -92.9685 -40.2 124 1457
10.3264 -91.8772 -40.1752 85 1466
9.30548 -93.7145 -40.6965 431 1458
10.7496 -93.134 -39.1249 85 1465
-20.5801 -84.0648 -43.4182 717 346
-21.1437 -84.9189 -43.789 720 354
-20.2403 -84.3104 -42.4164 720 353
-19.8578 -82.885 -45.3121 714 348
-18.8816 -84.6229 -44.6358 718 356
-19.1054 -82.7089 -46.4194 713 349
-18.6202 -83.1581 -43.7086 718 357
-19.3612 -83.7089 -44.2816 715 347
-21.2705 -83.2275 -43.3149 720 355
-7.76762 -41.5867 -41.0938 907 1736
-8.56863 -40.1034 -42.7779 416 1735
-7.59265 -40.1496 -41.7155 415 1733
91.9697 -41.6897 -46.5481 712 1255
-8.78669 -39.9613 -42.5209 416 1734
-4.17309 -37.9761 -41.6439 907 1740
-4.68095 -38.9435 -40.5143 415 1737
-6.00014 -39.7157 -41.2639 421 1732
18.9918 -22.5352 -41.0277 718 47
18.1912 -20.7145 -40.8893 348 1691
15.6154 -21.565 -42.0279 415 1693
14.7252 -21.7974 -40.8999 416 1694
14.3995 -21.6322 -41.2554 416 1695
15.6917 -22.962 -42.7499 907 1696
16.4977 -20.5341 -43.0644 421 1692
19.1239 -24.4898 -39.7136 718 50
20.6577 -22.8532 -41.5441 718 48
20.0039 -22.7335 -40.6806 715 41
18.6071 -19.3678 -44.7979 416 1699
17.7339 -19.5226 -43.6541 415 1697
18.9973 -19.2758 -44.3268 416 1698
17.1341 -18.0875 -43.4299 907 1700
9.47295 -96.296 -41.1742 416 1460
-1.84173 -92.031 -39.7329 720 434
-1.3719 -91.4978 -38.9045 717 427
-1.13423 -92.2243 -38.1258 720 433
-0.450546 -91.0562 -39.2832 720 435
-4.66271 -88.8174 -35.4876 720 430
-3.75696 -88.0549 -34.195 720 428
-3.65708 -88.6738 -35.0846 717 421
-3.25136 -89.63 -34.7594 720 429
-3.19592 -86.9821 -36.3359 718 432
-2.77237 -87.9563 -36.088 715 422
-1.27213 -90.2861 -36.3614 712 425
-2.22798 -90.4725 -38.4263 714 426
-1.98681 -89.8702 -37.2677 713 424
-2.72005 -88.7489 -37.2443 714 423
-1.77806 -87.7828 -35.676 718 431
-7.55931 -38.1469 -39.0551 348 1731
-3.4949 -39.2349 -39.7406 416 1739
-3.80357 -38.6687 -39.391 416 1738
20.4732 -21.2616 -37.5888 712 45
20.4954 -21.711 -39.8349 714 46
20.3816 -23.3578 -38.4946 714 43
20.3883 -22.0155 -38.5527 713 44
20.0634 -23.9399 -39.7387 715 42
20.8691 -24.6178 -40.0297 718 49
-66.9088 -89.9718 -24.9846 714 1323
-68.7633 -87.441 -26.055 89 1327
-67.9174 -88.1031 -25.8712 458 1321
-68.0679 -89.2462 -25.2093 458 1322
-69.0446 -89.5582 -24.8442 89 1328
-65.6127 -88.1994 -24.3068 712 1325
-66.4288 -88.6447 -25.13 713 1324
-66.6021 -87.8885 -26.2627 714 1326
17.7165 -75.3404 -21.6581 726 1527
18.398 -74.9913 -23.0714 727 1528
16.6079 -75.7157 -22.7623 727 1529
18.6232 -76.6511 -21.6262 727 1530
16.9635 -75.6707 -20.2943 727 1531
16.6913 -76.4832 -22.087 727 1532
16.7854 -74.0362 -21.7742 727 1533
16.6443 -74.1827 -23.8326 348 1534
19.277 -0.49738 -24.4252 415 1673
17.9545 -0.0844089 -24.8312 416 1675
19.1178 -2.02809 -24.0857 907 1676
23.9581 -0.384141 -24.5187 416 1679
20.951 -0.330444 -24.7402 421 1672
-93.0781 -97.1539 -13.9592 416 1704
-93.0627 -97.483 -13.7932 416 1705
49.7849 -81.389 -16.2789 124 1479
49.3261 -82.31 -15.9205 85 1487
49.7969 -82.2624 -19.8572 416 1482
51.4649 -82.3592 -17.7496 431 1484
51.2823 -81.6393 -16.4481 124 1478
51.7264 -82.2359 -15.6613 85 1485
49.1569 -80.9944 -17.623 431 1480
50.3922 -81.4611 -18.8149 415 1481
51.1289 -80.2647 -19.1457 416 1483
51.8216 -80.711 -16.5984 85 1486
49.6344 -80.6145 -15.5128 85 1488
77.196 -67.7325 -15.9724 714 53
76.4602 -66.726 -16.6139 715 52
75.6411 -66.3894 -15.9804 718 60
76.0528 -67.1054 -17.5566 718 59
79.3349 -68.1205 -15.2986 712 55
78.4745 -67.4187 -15.8083 713 54
77.2406 -64.7059 -16.3396 718 57
77.6081 -65.4334 -17.9188 718 58
77.4893 -65.6308 -16.8527 715 51
78.6529 -66.2067 -16.3185 714 56
-56.4032 -40.6055 -14.2223 712 65
-15.1247 -41.1556 -16.415 720 405
-14.2231 -39.6383 -16.2133 720 404
-15.2178 -40.0965 -16.1742 717 397
-59.4643 -38.037 -15.2283 718 68
-58.3951 -38.0324 -15.4379 715 61
-58.2261 -37.5736 -16.41 718 67
-56.9752 -36.5704 -14.687 718 70
-57.6207 -37.3624 -14.3093 715 62
-57.892 -39.3429 -15.4043 714 66
-56.8393 -38.4074 -13.7827 714 63
-56.9845 -39.5465 -14.45 713 64
-14.3772 -38.4781 -13.9979 712 395
-15.8561 -39.6502 -16.9348 720 403
-15.4439 -39.0798 -13.9802 713 394
-15.8468 -39.9786 -14.8987 714 396
-90.519 -93.9879 -13.0388 348 1701
-90.8953 -96.8998 -11.8325 421 1702
-92.3154 -96.7792 -12.7793 415 1703
-93.4088 -96.3253 -11.74 907 1706
-89.3477 -96.583 -11.1982 415 1707
-88.3971 -95.8148 -10.4136 416 1708
-88.6687 -96.3414 -9.94641 416 1709
-88.4664 -97.6747 -11.9068 907 1710
5.68672 -41.5023 -8.15607 718 461
6.09405 -41.0597 -10.678 720 459
9.14929 -42.8815 -8.22733 712 455
7.3782 -41.1009 -7.89117 718 462
6.67199 -41.4909 -8.6219 715 452
7.75056 -40.6642 -10.3135 720 460
9.22681 -45.5249 -8.65005 717 457
8.19307 -44.7014 -9.13135 714 456
8.17387 -43.4204 -8.74343 713 454
9.07804 -46.5467 -9.00189 720 464
10.2 -45.1918 -9.01106 720 465
6.9961 -42.8481 -8.97768 714 453
9.23535 -45.4867 -7.56106 720 463
6.73709 -40.6312 -9.91296 717 451
-58.2843 -36.9496 -13.5433 718 69
-14.3602 -39.5392 -11.2406 720 399
-15.9122 -40.11 -10.6578 720 400
-15.4582 -37.3927 -12.0474 718 401
-16.0705 -38.2731 -11.8331 715 392
-16.3939 -38.9419 -13.0537 714 393
-15.3245 -39.2121 -10.8567 717 391
-16.9868 -37.9189 -11.3573 718 402
-15.1765 -38.7057 -9.90174 720 398
6.42692 -39.5918 -9.78072 720 458
-38.9785 -13.5749 -7.80861 406 1905
-38.971 -13.6936 -9.17869 408 1906
-40.0392 -14.2289 -7.77142 407 1907
-36.4934 -15.8267 -8.59657 348 1910
-37.054 -12.9717 -10.2877 909 1901
-37.4992 -13.2684 -8.80477 908 1902
-37.1661 -11.9486 -8.01036 408 1903
-37.5707 -13.109 -7.39428 406 1904
-37.4171 -12.5145 -10.1861 909 1909
-56.5712 -81.2237 -2.0891 407 1113
62.4533 -26.8016 -0.289395 718 446
-56.5437 -80.6364 -1.01506 406 1112
-54.8191 -79.163 -1.64054 431 1110
-55.1056 -78.8122 -2.67913 410 1118
-54.066 -79.9541 -1.68383 410 1119
-53.168 -77.5836 -1.20193 85 1116
-57.4559 -82.2512 -0.0762047 85 1121
-70.1248 -92.1406 4.70886 348 1930
-67.7064 -89.3488 6.50798 497 1928
-57.3908 -81.1672 0.144915 80 1114
-58.3787 -80.7216 -0.0643081 85 1120
83.072 -7.61606 94.3039 727 1573
85.7415 -82.4562 5.8322 718 386
84.4648 -84.5778 6.3251 720 384
83.8466 -83.7084 4.93228 720 383
86.2167 -83.1186 4.26164 718 387
85.9372 -83.3814 5.28432 715 377
84.8275 -85.148 4.66726 720 385
84.6996 -84.2715 5.30756 717 376
87.0015 -84.0598 5.92899 714 378
89.0397 -84.5955 6.10809 714 381
88.266 -83.6125 5.72805 713 379
88.6218 -82.5957 5.12356 712 380
90.2413 -84.7031 4.41728 720 389
90.3131 -84.747 5.50835 717 382
90.7729 -85.675 5.8341 720 388
90.9641 -83.9405 5.8344 720 390
-57.0238 -81.0525 1.15758 85 1122
-53.6882 -78.4921 0.10768 85 1115
26.9887 -62.6735 97.9655 458 1329
61.775 -27.856 4.32826 720 449
60.9402 -27.1555 4.32928 717 442
60.0512 -27.7018 4.62226 720 448
61.2996 -26.8795 1.99404 713 439
62.053 -27.8582 1.90537 712 440
60.6894 -26.5094 3.09332 714 441
61.0951 -26.4057 5.10311 720 450
61.0877 -25.9446 1.0339 714 438
63.1593 -24.855 0.409866 717 436
63.6538 -25.1997 1.31451 720 444
62.7908 -23.8517 0.628754 720 445
-71.2304 -90.7498 7.55653 909 1921
-69.7305 -90.8167 7.07459 908 1922
-69.1319 -89.4611 7.60726 408 1923
-68.3766 -90.3352 6.8614 406 1924
-68.177 -91.6671 7.60966 406 1925
-69.4327 -92.0302 8.03859 408 1926
-67.7125 -92.7931 7.87728 407 1927
-70.9911 -90.6119 7.99997 909 1929
-2.24109 -61.7674 7.25153 407 1141
-1.08745 -60.5527 9.70842 431 1138
-1.92151 -61.7248 9.64572 408 1139
-2.35586 -62.2445 8.3952 406 1140
-0.570787 -60.3471 8.76546 410 1146
-3.07435 -64.0713 7.53571 85 1150
-2.9853 -63.6581 8.49581 80 1142
-2.4135 -64.2443 9.2699 85 1148
-3.95939 -63.6891 8.98169 85 1149
-0.22158 -60.7 10.4404 410 1147
-2.89572 -59.6538 10.0357 85 1144
-1.88545 -59.5439 10.3785 80 1137
-1.98132 -59.5936 11.4133 85 1145
-1.40596 -58.5873 10.0765 85 1143
-46.542 -14.0004 9.16309 718 522
-50.6567 -17.0028 9.72426 720 524
-50.3062 -16.8071 8.70889 717 517
-50.7204 -17.5592 8.03681 720 523
-50.6964 -15.8464 8.37921 720 525
-48.8774 -16.8458 8.67209 714 516
-48.2223 -15.9267 9.37895 713 514
-48.7156 -15.0104 10.0335 712 515
-46.9269 -16.0483 9.11652 714 513
-45.6271 -14.9414 10.8619 717 511
-46.07 -14.9556 9.39992 715 512
-45.1793 -15.0282 8.77804 718 521
-45.0217 -14.0595 11.0679 720 518
-46.4807 -14.9545 11.5344 720 520
-45.0352 -15.8056 11.1439 720 519
83.6362 -13.6148 12.5419 497 1998
-0.696634 -88.0435 19.1069 713 484
-0.264076 -89.1878 18.969 712 485
-1.28748 -87.37 18.152 714 486
-1.16207 -88.5352 16.411 720 495
-1.89418 -88.0692 17.0722 717 487
-2.46955 -87.3515 16.4897 720 494
-2.5556 -88.8553 17.4451 720 493
-80.5975 -82.4876 19.977 416 1427
76.931 -65.0936 17.4435 720 668
77.3398 -66.639 18.2047 720 669
75.3689 -65.4999 19.375 718 671
76.4136 -64.122 19.7121 718 672
76.4051 -65.201 19.5474 715 662
78.3172 -65.2131 18.5022 720 670
77.2938 -65.5618 18.3563 717 661
16.4615 -35.3981 19.6159 720 623
83.5508 -13.2362 16.4437 909 1991
83.8769 -13.9536 15.0759 908 1992
83.8084 -14.2204 13.6145 406 1994
84.6999 -15.2927 14.256 406 1995
84.471 -15.3141 15.61 408 1996
85.0985 -16.4666 14.3724 407 1997
81.3385 -15.4028 15.2195 348 2000
84.1008 -12.9142 13.9137 408 1993
84.1066 -13.0852 16.373 909 1999
11.6767 -0.480486 16.0758 85 1213
25.1244 -62.6527 98.939 89 1336
52.5159 -6.10616 18.7267 713 1274
52.6997 -4.88271 19.2471 714 1273
51.4613 -6.72367 18.6447 712 1275
54.6178 -3.30813 19.1985 786 1277
54.338 -4.81052 20.4151 788 1280
55.6605 -5.92649 18.7838 718 1279
53.7138 -6.52244 18.3055 714 1276
54.707 -5.53128 18.431 715 1271
54.063 -4.5353 19.3946 715 1272
54.8677 -5.07443 17.4538 718 1278
-0.553129 -89.0702 21.3828 718 491
-1.82335 -88.2573 23.2116 720 488
-0.619016 -87.9808 21.4676 715 482
-0.741183 -87.3326 20.2289 714 483
-1.87128 -87.6955 22.2794 717 481
-2.77382 -87.9932 21.7518 720 489
-1.97401 -86.6327 22.516 720 490
0.277485 -87.5974 21.9614 718 492
-81.3745 -83.0125 23.1593 124 1423
-81.2804 -83.3668 24.1772 85 1431
-81.8879 -83.7832 22.6075 85 1430
-81.9998 -81.1697 21.6953 431 1425
-82.0906 -81.686 23.1254 124 1424
-81.6099 -81.0335 23.8549 85 1433
-83.1134 -81.8298 23.3672 85 1432
-80.0011 -82.7748 22.4704 431 1429
-79.4942 -80.5853 21.1761 416 1428
-80.3956 -81.709 21.1566 415 1426
38.5079 -81.901 23.2453 431 1152
38.2259 -81.5214 24.4816 408 1153
37.7695 -80.2681 24.6136 406 1154
38.5417 -83.003 23.3966 410 1161
39.8161 -81.456 22.6684 80 1151
39.892 -80.4213 22.8126 85 1157
37.7511 -81.6588 22.6237 410 1160
39.9719 -81.745 21.578 85 1159
38.2855 -78.6472 25.8052 85 1164
40.6156 -81.8427 23.2738 85 1158
37.1112 -79.5951 23.813 407 1155
38.1127 -79.7041 25.9771 80 1156
38.9954 -80.1371 26.4226 85 1163
37.2885 -79.8423 26.7085 85 1162
75.4095 -64.8317 24.0122 720 675
76.4276 -65.8191 21.8824 713 664
76.9336 -66.3625 22.8568 712 665
74.8217 -64.5071 23.151 717 667
74.8512 -63.4177 23.157 720 673
73.7932 -64.856 23.285 720 674
76.9543 -65.9215 20.6377 714 663
75.3358 -65.0177 21.9285 714 666
61.5005 -49.69 26.4009 85 1130
62.513 -48.1058 26.0583 85 1131
18.5954 -34.5477 20.5879 718 626
16.7042 -35.5765 20.6638 717 616
18.5529 -35.6414 22.2993 714 618
16.2032 -34.8359 21.2832 720 624
16.3195 -36.5622 20.9262 720 625
18.218 -35.5142 20.9222 715 617
18.7264 -36.2985 20.3567 718 627
19.8677 -35.695 22.6308 713 619
20.7479 -36.1312 21.8774 712 620
21.4816 -34.8369 24.2466 717 622
21.4838 -33.959 24.8854 720 628
21.8427 -35.667 24.8569 720 629
22.1922 -34.7006 23.428 720 630
20.1284 -35.0687 23.814 714 621
92.6782 -33.3753 22.7479 718 118
90.3127 -33.6368 22.5243 718 119
90.6125 -32.6328 22.8428 715 112
90.5734 -32.3393 26.31 712 115
92.0882 -32.5846 23.2126 715 111
90.0137 -32.3448 24.0921 714 113
90.8514 -32.4531 25.1172 713 114
92.0385 -32.7315 24.6104 714 116
92.5263 -31.6229 22.9594 718 117
90.3457 -31.9095 22.0726 718 120
52.233 -21.6786 26.2418 720 615
-64.731 -87.8057 33.0484 720 599
-65.1405 -87.0057 33.6696 717 592
-66.1252 -86.767 33.2724 720 598
15.7509 -66.7212 32.6342 718 107
12.8389 -64.014 31.9491 712 105
15.3325 -65.9882 33.3199 715 101
14.8352 -64.88 32.6037 714 106
13.5105 -64.8256 32.5702 713 104
59.4687 -47.3439 28.588 80 1128
58.5021 -47.7654 28.3433 85 1135
62.4066 -49.0607 26.5354 80 1123
63.1889 -49.5353 26.0004 85 1129
59.9906 -49.6726 28.9735 407 1127
62.8169 -50.0828 28.4759 410 1132
63.5955 -48.6575 28.1556 410 1133
62.5979 -49.0547 28.0465 431 1124
61.5974 -48.1967 28.6781 408 1125
60.3747 -48.5287 28.8051 406 1126
-27.3647 -40.8319 28.0264 421 1742
-28.3628 -41.785 29.036 415 1743
-29.6995 -42.1021 29.5159 416 1744
-29.7482 -42.1577 29.1876 416 1745
-27.5859 -43.1511 29.129 907 1746
59.5613 -46.5932 29.393 85 1136
59.8431 -46.6998 27.769 85 1134
-27.2488 -38.5603 26.8672 907 1750
-25.0584 -39.488 26.7997 416 1749
-24.2362 -35.336 29.618 717 532
-22.9165 -35.364 30.1485 714 531
-20.8067 -35.3574 30.0467 714 528
-21.8873 -35.4055 28.0612 712 530
-21.8827 -35.3979 29.2988 713 529
-24.4598 -34.3293 29.2641 720 539
-24.3101 -36.0307 28.7745 720 540
-25.0112 -35.6336 30.323 720 538
-26.5037 -39.7831 30.955 348 1741
-26.2884 -39.6061 27.5434 415 1747
-24.9742 -38.9899 27.4553 416 1748
-19.2879 -36.2109 28.8893 718 536
-18.6738 -33.8183 30.7316 720 535
-18.4794 -34.8126 30.3332 717 526
-19.5614 -35.2676 29.3682 715 527
-19.6427 -34.5206 28.5763 718 537
-17.5415 -34.7925 29.7804 720 533
-18.4252 -35.471 31.1975 720 534
-61.4441 -23.2037 32.7219 408 1933
-62.3766 -23.4888 31.7524 406 1934
-62.696 -24.9947 31.7472 406 1935
-62.9362 -25.3152 33.063 408 1936
-63.1646 -26.0733 31.3322 407 1937
-61.8296 -22.6707 30.9923 497 1938
-65.5187 -23.0627 32.8767 348 1940
49.5986 -22.0828 32.013 717 601
49.6928 -21.9834 33.0956 720 608
50.0793 -23.0197 31.7408 720 609
48.5393 -22.1512 31.7635 720 610
50.2499 -20.8964 31.2833 715 602
51.2584 -20.7246 31.6696 718 611
51.3241 -21.3731 29.2049 713 604
52.4126 -21.615 29.7304 712 605
50.2304 -21.0323 29.8691 714 603
51.0866 -22.9573 26.49 720 614
51.7626 -22.2836 27.0108 717 607
51.0137 -21.4449 27.8903 714 606
52.5304 -22.8822 27.5046 720 613
49.6665 -20.001 31.51 718 612
25.4883 -9.99252 32.9741 907 1766
-65.2407 -87.4144 34.6734 720 600
-62.4255 -87.0004 34.0604 712 590
-64.3278 -85.8223 33.6562 714 591
-63.0326 -85.9286 33.9757 713 589
-60.472 -84.6463 34.3721 718 597
-61.4534 -82.579 35.3481 720 595
-62.5115 -84.7542 34.3182 714 588
-61.1711 -85.6119 35.681 718 596
-60.421 -83.3819 36.5232 720 593
-61.3434 -83.4786 35.9546 717 586
-61.3089 -84.7187 35.0662 715 587
-62.1516 -83.5382 36.6806 720 594
13.9517 -67.5768 33.9562 718 110
14.0784 -66.4977 34.0182 715 102
13.059 -65.8129 33.3384 714 103
16.0906 -65.6982 34.0488 718 108
14.0788 -66.1957 35.0696 718 109
43.1014 -59.9275 39.6796 720 554
-62.8071 -23.7459 34.7027 909 1931
-62.8689 -23.7395 33.1261 908 1932
-62.3764 -23.9535 34.6104 909 1939
25.7266 -8.85632 34.0394 415 1763
24.4062 -8.29262 34.2609 416 1764
24.5273 -8.05634 33.9769 416 1765
26.7592 -10.4562 36.7604 348 1761
27.4305 -8.81197 34.196 421 1762
29.0098 -8.95642 34.8193 415 1767
30.2103 -9.6983 35.1614 416 1768
30.294 -9.55242 34.5176 416 1769
29.3561 -7.47178 35.1994 907 1770
91.2756 -2.76809 39.9351 714 498
89.9208 -2.56879 37.6618 720 505
88.9336 -3.4863 38.7746 720 504
89.3108 -2.48844 38.5626 717 496
88.466 -1.83555 38.3413 720 503
92.701 -5.15746 40.1102 720 510
90.1165 -1.96771 39.7487 715 497
93.6051 -3.86834 39.2453 720 508
0.0317504 -80.1311 41.6804 407 1967
3.34894 -81.9835 43.2609 909 1961
2.57102 -80.6993 42.784 908 1962
1.24201 -80.0904 41.9446 406 1965
1.52525 -81.4268 41.8565 408 1966
3.33068 -82.0802 42.8047 909 1969
1.63141 -80.1815 45.4267 348 1970
12.5919 -84.8809 44.8569 712 125
16.5955 -85.344 46.1455 718 127
15.6384 -84.9681 46.4936 715 121
13.54 -85.1152 45.5857 713 124
14.7734 -84.6394 45.4368 714 126
13.5482 -85.8777 46.671 714 123
83.3167 -82.5417 44.3785 718 1289
80.507 -82.1719 43.5084 786 1287
82.763 -82.6877 42.712 718 1288
82.9992 -84.4865 43.673 714 1286
80.863 -84.4826 44.0063 714 1283
81.9168 -85.2725 43.7432 713 1284
81.899 -86.49 43.6135 712 1285
81.2135 -83.1266 44.1731 715 1282
81.1544 -82.8911 45.2357 788 1290
82.6727 -83.1149 43.7113 715 1281
3.67233 -79.9141 41.9686 408 1963
2.51497 -79.4202 41.4349 406 1964
3.28216 -78.4824 41.1446 497 1968
24.6911 -54.4142 42.4776 720 478
24.9926 -53.5141 41.0087 720 479
25.4873 -52.8345 42.5696 720 480
24.7171 -53.4108 42.0619 717 472
42.7094 -59.5572 41.3867 720 553
43.5218 -57.9799 40.3032 714 546
44.3702 -59.7976 40.8779 720 555
43.4095 -59.3798 40.5719 717 547
43.9395 -53.7523 43.657 720 548
42.6666 -53.8731 42.4849 720 550
45.2665 -55.5524 42.5872 718 551
43.309 -57.48 42.5045 712 545
44.9402 -54.1963 41.5183 718 552
44.4794 -55.0413 42.0267 715 542
42.9442 -55.2147 43.585 720 549
43.4411 -54.4526 42.9866 717 541
43.55 -57.1397 41.345 713 544
43.942 -55.8975 41.0226 714 543
23.8451 -51.462 40.4707 712 470
23.4694 -52.7691 42.2351 714 471
22.2688 -50.9225 42.0178 714 468
23.2297 -51.6965 41.5066 713 469
22.7139 -49.299 40.7964 718 476
20.355 -49.2323 42.7294 720 475
21.2691 -48.8159 42.3081 717 466
21.0097 -47.8449 41.8822 720 473
21.9412 -48.6682 43.1507 720 474
21.8654 -49.7834 41.2864 715 467
21.134 -50.0425 40.5193 718 477
19.1876 -36.3812 46.481 714 93
17.6027 -37.676 46.217 718 99
-74.5959 -12.2579 45.2511 416 1755
-74.5089 -12.0964 45.7176 416 1754
-72.7082 -10.2961 44.0003 421 1752
-73.391 -11.5041 45.0016 415 1753
-72.2329 -12.563 45.1462 907 1756
-72.0635 -8.84192 43.3853 415 1757
-71.071 -7.7833 43.3345 416 1758
-70.9128 -8.13959 42.8558 416 1759
-73.2719 -8.2698 42.5618 907 1760
93.0473 -3.43496 41.1909 714 501
91.8196 -2.88838 41.1652 713 499
91.2986 -2.44941 42.1963 712 500
89.4605 -1.9514 40.623 718 506
90.4555 -0.948057 39.5595 718 507
93.4441 -4.36775 40.1975 717 502
94.3974 -4.81499 40.484 720 509
4.8112 -96.3623 51.5905 908 1982
3.78059 -96.7507 52.7127 408 1983
3.66721 -97.7825 51.8115 406 1984
5.06535 -98.3618 51.5389 406 1985
5.99172 -97.3857 51.826 408 1986
5.80853 -99.2247 51.0353 407 1987
2.6036 -98.2583 52.2421 497 1988
5.56084 -95.2156 52.3777 909 1989
5.38675 -95.5195 52.7972 909 1981
96.5182 -99.4035 53.3994 714 891
94.5309 -99.1574 52.9055 720 898
95.4356 -97.6637 53.0672 720 900
-6.73217 -92.1656 49.5679 909 1971
-7.28253 -89.8479 46.8585 348 1980
-5.45156 -91.2486 49.7515 908 1972
-6.4328 -90.1789 50.3921 408 1973
-5.62389 -89.4661 49.5333 406 1974
-4.71656 -90.2137 48.537 406 1975
-5.51196 -91.2757 48.1814 408 1976
-4.05551 -90.1612 47.482 407 1977
-6.1136 -88.6517 50.3381 497 1978
-6.41529 -92.4668 50.0639 909 1979
15.1843 -87.0297 47.0508 718 130
15.8024 -84.0948 47.1262 718 128
14.8245 -86.0179 47.2334 715 122
14.8069 -85.8303 48.3116 718 129
19.1474 -35.2443 47.163 713 94
19.816 -34.2452 46.9505 712 95
18.234 -35.381 48.1132 714 96
16.5284 -36.5122 47.8972 718 98
17.5904 -36.6305 48.1183 715 91
17.7002 -37.1368 49.0732 718 97
18.3109 -37.355 46.988 715 92
18.8788 -38.2178 47.3343 718 100
-78.7886 -16.0968 49.9782 720 570
-77.3326 -15.2142 50.5764 720 569
-78.3974 -15.4174 50.7358 717 562
-78.9328 -14.4739 50.6304 720 568
-78.5422 -15.9554 52.0242 714 561
-78.387 -15.182 53.0999 713 559
-78.2585 -13.9515 53.0797 712 560
-72.1384 -9.10836 46.7694 348 1751
-26.9364 -3.24117 51.3723 727 1577
-26.7987 -2.57547 52.1332 727 1580
-26.9455 -4.38079 49.8932 348 1582
-25.4676 -2.59967 51.2548 726 1575
-26.0846 -2.48871 49.7751 727 1576
-25.7566 -1.0405 51.42 727 1578
-24.909 -2.78348 52.735 727 1579
-25.2564 -4.17957 51.0543 727 1581
4.41407 -98.0122 54.6649 348 1990
94.9912 -98.5543 54.5041 720 899
95.3204 -98.667 53.4701 717 892
-87.1369 -87.9242 58.6474 712 1381
-90.3295 -86.9863 57.2271 89 1384
-88.3181 -88.2516 58.7462 713 1380
-89.7835 -87.5898 57.9348 458 1378
-89.809 -87.4411 59.2401 458 1377
-88.9323 -88.5654 57.5967 714 1379
-90.4138 -86.7017 59.7625 89 1383
2.20215 -81.4713 59.5156 720 658
2.15084 -80.4309 59.8267 717 652
4.07503 -79.757 57.8524 712 650
3.76339 -77.5797 56.1243 718 656
1.65526 -78.2922 54.0138 720 655
3.04433 -78.2812 55.6811 715 647
2.88407 -79.465 57.758 713 649
1.92097 -79.6417 58.6747 714 651
2.28254 -78.8089 56.7423 714 648
2.16048 -77.562 54.649 717 646
2.75015 -76.8962 54.0157 720 653
1.3913 -76.9568 55.1362 720 654