ITEM: TIMESTEP
0
ITEM: NUMBER OF ATOMS
1510
ITEM: BOX BOUNDS pp pp pp
-1.0000000000000000e+02 1.0000000000000000e+02
-1.0000000000000000e+02 1.0000000000000000e+02
-1.0000000000000000e+02 1.0000000000000000e+02
ITEM: ATOMS id type xs ys zs
1473 431 0.435114 0.00549258 0.0314367
82 715 0.243458 0.17753 0.00168823
89 718 0.243031 0.173354 0.00516181
90 718 0.243836 0.18217 0.00451689
1221 715 0.696648 0.308626 0.0174058
1224 713 0.694036 0.313588 0.0273262
1225 712 0.690834 0.31655 0.0316495
1226 714 0.691625 0.311165 0.0216216
1228 718 0.697554 0.312201 0.0133927
1229 718 0.695294 0.303825 0.0152148
1222 715 0.702646 0.308148 0.0221016
1223 714 0.700535 0.312178 0.0274897
1227 786 0.708344 0.309401 0.0186073
1230 788 0.703101 0.303044 0.0239726
1470 415 0.440989 0.00310209 0.0376255
1471 416 0.438159 0.00438838 0.0440958
1472 416 0.44743 0.00580952 0.0358729
216 715 0.319337 0.286174 0.0638854
217 714 0.325055 0.284252 0.0602607
218 713 0.329344 0.280636 0.0638483
225 718 0.314747 0.285261 0.0610957
226 718 0.319665 0.291487 0.0650668
219 712 0.334847 0.278644 0.0620243
214 717 0.318426 0.285548 0.0766761
215 716 0.319845 0.281825 0.0701307
220 714 0.326529 0.279645 0.0698192
221 720 0.318946 0.282188 0.0809483
222 720 0.321875 0.28973 0.0773489
223 720 0.31335 0.287527 0.0767117
224 719 0.316637 0.277444 0.0696495
746 718 0.456887 0.0009461 0.116079
1341 712 0.590613 0.208136 0.130514
1081 80 0.11752 0.294844 0.118488
1087 85 0.115741 0.291542 0.122445
1088 85 0.116901 0.292267 0.113727
1089 85 0.12285 0.295703 0.119241
1082 431 0.113583 0.301399 0.118465
1083 408 0.114491 0.304717 0.124638
1084 406 0.110465 0.309829 0.12618
1085 407 0.105846 0.311941 0.122713
1086 80 0.112235 0.313007 0.13284
1090 410 0.115277 0.304638 0.114428
1091 410 0.108291 0.300364 0.117645
1092 85 0.116291 0.316575 0.132134
11 715 0.458646 0.0949419 0.138737
12 715 0.458418 0.0995749 0.144776
13 714 0.464944 0.0990006 0.14736
16 714 0.465546 0.0937555 0.138035
17 718 0.456544 0.0972749 0.134281
18 718 0.45606 0.0902312 0.139695
19 718 0.454642 0.0980877 0.148412
14 713 0.469119 0.0959205 0.143207
15 712 0.475162 0.0952149 0.143996
22 715 0.555915 0.0947299 0.153222
23 714 0.557848 0.0934249 0.146576
24 713 0.555547 0.0979332 0.142267
25 712 0.556886 0.098254 0.136288
28 718 0.545582 0.0981747 0.153018
29 718 0.553963 0.0902823 0.155692
30 718 0.560189 0.0966003 0.156033
20 718 0.457503 0.104726 0.143261
21 715 0.550629 0.100141 0.152345
26 714 0.551552 0.102044 0.145633
27 718 0.551398 0.104331 0.155747
1241 715 0.986589 0.125432 0.158194
1242 715 0.980246 0.122281 0.161038
1243 714 0.97695 0.120198 0.155163
1244 713 0.980857 0.120311 0.14978
1245 712 0.979396 0.118284 0.14417
1246 714 0.986662 0.122996 0.151598
1247 786 0.977397 0.126568 0.165482
1248 718 0.986215 0.130868 0.158064
1249 718 0.991065 0.124042 0.160973
1250 788 0.981537 0.117794 0.163861
1338 458 0.594139 0.220261 0.14004
1339 714 0.588921 0.216548 0.137741
1340 713 0.592991 0.211837 0.134811
1342 714 0.599636 0.211189 0.136445
1344 89 0.593249 0.225139 0.142199
1337 458 0.600009 0.217333 0.139321
1343 89 0.604772 0.219402 0.14078
1093 85 0.107918 0.315634 0.134883
1094 85 0.113847 0.309199 0.136404
418 720 0.273007 0.444621 0.164283
1329 458 0.594817 0.118403 0.182229
1330 458 0.593473 0.112055 0.18343
1331 714 0.593476 0.110452 0.190043
1332 713 0.596168 0.116504 0.191913
1333 712 0.598974 0.116937 0.197368
1334 714 0.595915 0.122047 0.187856
1335 89 0.595086 0.120714 0.177363
1336 89 0.592441 0.108253 0.179725
406 717 0.276785 0.447467 0.19579
407 715 0.270939 0.449881 0.191464
408 714 0.272844 0.450511 0.184655
409 713 0.272816 0.445111 0.180678
410 712 0.271933 0.439326 0.182605
411 714 0.273634 0.446957 0.174311
412 717 0.272864 0.442159 0.169145
414 720 0.280935 0.451 0.195638
415 720 0.278613 0.442641 0.194039
416 718 0.269221 0.454741 0.193234
417 718 0.266705 0.446469 0.191938
419 720 0.276857 0.438452 0.169336
420 720 0.268084 0.439567 0.169623
31 715 0.432606 0.226311 0.230712
38 718 0.428325 0.223309 0.229145
32 715 0.430511 0.233289 0.232928
37 718 0.436276 0.226454 0.226682
39 718 0.425473 0.234576 0.231299
40 718 0.433994 0.237055 0.231098
1234 713 0.832517 0.246831 0.228643
1235 712 0.826646 0.245622 0.227307
1231 715 0.843116 0.250918 0.227734
1236 714 0.836995 0.249555 0.224551
1238 718 0.843448 0.256272 0.2287
1239 718 0.847403 0.249401 0.224732
373 720 0.17815 0.364865 0.222317
366 714 0.178099 0.367909 0.232172
367 717 0.178922 0.369375 0.225283
374 720 0.17534 0.373153 0.223666
375 720 0.183957 0.371242 0.224299
413 720 0.275255 0.446874 0.200986
349 713 0.388843 0.0948477 0.265334
351 714 0.388822 0.0939175 0.258719
352 717 0.391848 0.0987415 0.254493
358 720 0.392 0.0968894 0.249367
360 720 0.396961 0.0997756 0.256103
359 720 0.389042 0.103416 0.25457
33 714 0.430987 0.232846 0.239941
34 713 0.434142 0.227367 0.241988
35 712 0.435676 0.226009 0.247771
36 714 0.435341 0.223636 0.236618
1232 715 0.842507 0.246958 0.23423
1233 714 0.835584 0.245626 0.234421
1237 786 0.845724 0.250292 0.239208
1240 788 0.84507 0.242171 0.233702
361 717 0.176607 0.378515 0.251062
362 715 0.181829 0.373565 0.248425
363 714 0.179345 0.369886 0.242887
364 713 0.179601 0.372549 0.236737
365 712 0.181211 0.378363 0.235484
368 720 0.17859 0.38141 0.25523
369 720 0.172129 0.37592 0.252779
370 720 0.175134 0.382021 0.24716
371 718 0.18319 0.370052 0.252363
372 718 0.186404 0.376204 0.247048
335 712 0.763343 0.43111 0.261864
334 713 0.768164 0.429329 0.265262
336 714 0.773128 0.425401 0.26313
337 717 0.7734 0.423488 0.256306
343 720 0.778089 0.4209 0.255287
344 720 0.769269 0.420154 0.255064
345 720 0.773112 0.427871 0.253065
201 717 0.549074 0.464117 0.263677
205 713 0.566505 0.465325 0.265289
207 714 0.5609 0.466109 0.261749
208 720 0.54759 0.465377 0.258576
209 720 0.549908 0.458725 0.263941
206 712 0.57213 0.464346 0.263058
202 716 0.555375 0.467987 0.265684
211 719 0.55464 0.473354 0.265072
427 717 0.486799 0.0587059 0.298608
433 720 0.491172 0.0554876 0.299104
434 720 0.482338 0.0555733 0.298494
435 720 0.487153 0.0613724 0.293858
346 717 0.381475 0.0923791 0.279094
347 715 0.387186 0.0887688 0.275479
348 714 0.386568 0.0893513 0.268432
353 720 0.382051 0.0920197 0.284501
354 720 0.37664 0.0902423 0.277759
355 720 0.381403 0.0976674 0.277783
356 718 0.387141 0.083478 0.276786
357 718 0.392004 0.0907351 0.277126
350 712 0.390868 0.0999155 0.268194
425 712 0.477547 0.0688589 0.299779
1257 786 0.951115 0.264432 0.290426
1258 718 0.963323 0.264155 0.288893
1259 718 0.961546 0.264572 0.280217
1251 715 0.961166 0.267241 0.284952
1252 715 0.954004 0.269278 0.286629
1253 714 0.954926 0.275871 0.288956
1254 713 0.960943 0.278335 0.287551
1255 712 0.962855 0.284085 0.288548
1256 714 0.964506 0.273428 0.284821
1260 788 0.951064 0.269571 0.282043
43 714 0.580078 0.393703 0.282989
44 713 0.58353 0.389955 0.287256
45 712 0.583332 0.38384 0.287699
46 714 0.587227 0.394053 0.290963
41 715 0.586717 0.400792 0.289002
42 715 0.580871 0.400607 0.284126
47 718 0.585738 0.404055 0.293257
48 718 0.591345 0.402351 0.286562
49 718 0.5819 0.403333 0.279522
50 718 0.57635 0.402609 0.286411
339 720 0.759724 0.429786 0.281172
340 720 0.7559 0.431043 0.273322
333 714 0.769322 0.431264 0.271579
210 720 0.544918 0.465343 0.26698
203 715 0.557884 0.466446 0.27272
204 714 0.564815 0.465763 0.271715
213 718 0.555875 0.461746 0.274619
331 717 0.758763 0.433472 0.277271
332 715 0.765308 0.436336 0.274502
338 720 0.755651 0.43741 0.279392
342 718 0.764258 0.440258 0.270853
341 718 0.768143 0.438678 0.278525
212 718 0.556714 0.470427 0.276252
426 714 0.48653 0.063274 0.304026
421 717 0.472782 0.0778132 0.312461
422 715 0.479716 0.0786291 0.309304
423 714 0.483181 0.0724397 0.30903
424 713 0.482006 0.0681887 0.303977
428 720 0.470102 0.0825572 0.31254
429 720 0.473157 0.0759929 0.317587
430 720 0.469779 0.0742604 0.309624
431 718 0.482676 0.0821383 0.31224
432 718 0.479273 0.0807738 0.304304
1321 458 0.121832 0.0948658 0.347804
1324 713 0.113035 0.0965414 0.343384
1325 712 0.108833 0.0962758 0.338902
1326 714 0.117333 0.0912437 0.344227
1327 89 0.126678 0.0928223 0.349001
1322 458 0.119632 0.10085 0.349505
1323 714 0.113327 0.102179 0.347317
1328 89 0.122351 0.104562 0.352347
51 715 0.891935 0.174764 0.3999
57 718 0.894681 0.173468 0.395372
58 718 0.887068 0.176821 0.398529
395 712 0.417002 0.29038 0.397845
397 717 0.430222 0.28863 0.39435
404 720 0.428317 0.284035 0.392117
405 720 0.428589 0.29284 0.391283
403 720 0.435671 0.288465 0.394285
9 718 0.597837 0.496776 0.384314
2 715 0.602575 0.498771 0.382509
3 714 0.607181 0.493694 0.380897
4 713 0.610324 0.494796 0.375144
5 712 0.615001 0.491544 0.372868
55 712 0.892144 0.166446 0.415108
52 715 0.895859 0.179518 0.404371
53 714 0.895209 0.176509 0.410704
54 713 0.892742 0.170345 0.410409
56 714 0.891051 0.169177 0.404087
59 718 0.893858 0.184586 0.4043
60 718 0.901115 0.179657 0.402948
464 720 0.558483 0.264597 0.42156
463 720 0.567273 0.264575 0.422631
391 717 0.409156 0.288527 0.411939
392 715 0.414101 0.294265 0.41078
393 714 0.420418 0.291844 0.40863
394 713 0.42141 0.290432 0.402149
396 714 0.427902 0.289342 0.401014
398 720 0.404283 0.290428 0.413466
399 720 0.410946 0.285141 0.415819
400 720 0.408451 0.285639 0.407372
401 718 0.414805 0.297054 0.415409
402 718 0.412083 0.297789 0.407134
465 720 0.563429 0.270841 0.417706
462 718 0.55468 0.289154 0.429352
454 713 0.557644 0.276681 0.428088
455 712 0.553396 0.277656 0.423734
456 714 0.562245 0.271841 0.427953
457 717 0.562876 0.267766 0.422183
70 718 0.20686 0.312389 0.43016
69 718 0.202309 0.305542 0.426813
68 718 0.206816 0.307349 0.416036
67 718 0.209255 0.315343 0.419088
66 714 0.216254 0.307751 0.420031
61 715 0.209576 0.309969 0.419949
62 715 0.207155 0.308032 0.426904
63 714 0.212281 0.303756 0.429146
64 713 0.217685 0.303931 0.425281
65 712 0.223018 0.301101 0.426368
461 718 0.557641 0.289866 0.437547
460 720 0.545038 0.282079 0.433573
459 720 0.547965 0.283154 0.441825
458 720 0.545062 0.290093 0.437209
451 717 0.547826 0.28541 0.436864
452 715 0.5549 0.286589 0.434164
453 714 0.558482 0.280492 0.433543
379 713 0.952707 0.100786 0.495659
380 712 0.958306 0.100398 0.493116
381 714 0.947286 0.103276 0.492655
382 717 0.94761 0.105129 0.485817
388 720 0.94263 0.106394 0.483994
389 720 0.950861 0.109452 0.485134
390 720 0.949555 0.101017 0.482799
436 717 0.816186 0.361353 0.490519
437 715 0.823318 0.359095 0.49218
438 714 0.825303 0.353608 0.488137
439 713 0.827693 0.354713 0.481969
440 712 0.827684 0.360175 0.479118
441 714 0.830302 0.349087 0.479487
443 720 0.814741 0.365644 0.493551
444 720 0.812596 0.357351 0.491425
445 720 0.815798 0.362815 0.485285
446 718 0.823602 0.357581 0.497407
447 718 0.826803 0.363251 0.491574
449 720 0.830607 0.35045 0.469214
442 717 0.833917 0.349292 0.473389
448 720 0.836266 0.344461 0.472456
450 720 0.837825 0.353096 0.473595
376 717 0.960845 0.0991441 0.509102
377 715 0.955811 0.0946765 0.505439
378 714 0.951114 0.0985342 0.501773
383 720 0.96451 0.0961493 0.511802
386 718 0.953097 0.0916191 0.509044
387 718 0.958422 0.0912176 0.502121
384 720 0.958342 0.102399 0.512689
385 720 0.963553 0.10229 0.505572
511 717 0.216092 0.39989 0.515307
515 712 0.232191 0.398018 0.514249
518 720 0.212102 0.396699 0.513414
520 720 0.219271 0.396841 0.518515
522 718 0.222095 0.398959 0.506333
512 715 0.220153 0.402913 0.509555
513 714 0.225466 0.406949 0.511978
514 713 0.231252 0.404091 0.513801
519 720 0.213833 0.403786 0.51838
521 718 0.216918 0.406002 0.506441
516 714 0.235901 0.408781 0.514812
517 717 0.24264 0.406858 0.515896
523 720 0.245849 0.411266 0.515931
524 720 0.243174 0.40428 0.52067
525 720 0.244348 0.403515 0.511933
1141 407 0.493684 0.194085 0.533337
1137 80 0.489125 0.182748 0.550571
1138 431 0.491861 0.185672 0.544058
1139 408 0.492182 0.192713 0.544584
1140 406 0.493141 0.196325 0.539038
1143 85 0.484087 0.184589 0.551543
1144 85 0.488909 0.177314 0.550243
1145 85 0.492272 0.184039 0.554831
1146 410 0.496842 0.183727 0.543025
1147 410 0.488633 0.18424 0.5399
672 718 0.890377 0.19092 0.560939
662 715 0.889799 0.189735 0.566236
664 713 0.897392 0.180695 0.564435
665 712 0.894737 0.178948 0.559157
670 720 0.882662 0.181662 0.56489
668 720 0.878936 0.189595 0.565682
675 720 0.907818 0.175605 0.558054
674 720 0.904143 0.168871 0.562464
673 720 0.911609 0.172577 0.565454
667 717 0.906831 0.173581 0.563027
1142 80 0.493618 0.203762 0.540469
1148 85 0.498696 0.204997 0.542011
1149 85 0.492396 0.206625 0.535993
1150 85 0.490177 0.205162 0.544468
629 720 0.631192 0.305302 0.566259
630 720 0.63204 0.313378 0.562742
1279 718 0.79931 0.445272 0.559262
1271 715 0.803426 0.448507 0.560773
1272 715 0.804203 0.454608 0.556255
1273 714 0.811201 0.45485 0.555414
1274 713 0.814275 0.449285 0.557374
1275 712 0.820241 0.447988 0.556718
1276 714 0.809683 0.445359 0.560153
1277 786 0.800649 0.459795 0.558846
1278 718 0.802697 0.449971 0.565972
1280 788 0.802016 0.453556 0.551369
486 714 0.486305 0.0656031 0.586424
487 717 0.489231 0.0636059 0.592567
493 720 0.49334 0.0601468 0.591632
495 720 0.485553 0.0610974 0.595725
488 720 0.466848 0.0821152 0.578485
481 717 0.471869 0.0801088 0.579159
482 715 0.471783 0.0724465 0.579189
483 714 0.478282 0.0697877 0.580229
484 713 0.480687 0.0692158 0.586463
485 712 0.477976 0.0714968 0.591504
489 720 0.475013 0.0820239 0.575137
490 720 0.473804 0.0820326 0.583875
491 718 0.469906 0.0706061 0.574415
492 718 0.468352 0.0706131 0.583018
494 720 0.491171 0.067919 0.59528
661 717 0.882995 0.18644 0.567488
663 714 0.895127 0.185587 0.568426
669 720 0.882199 0.18553 0.572804
671 718 0.890077 0.194468 0.568924
666 714 0.903069 0.178181 0.566897
616 717 0.611422 0.316659 0.582411
617 715 0.616765 0.321512 0.579836
618 714 0.623013 0.318258 0.578965
619 713 0.62422 0.314825 0.57333
620 712 0.620023 0.313605 0.568987
621 714 0.630678 0.313151 0.573013
623 720 0.60661 0.319158 0.582948
624 720 0.612813 0.314597 0.587263
625 720 0.610757 0.31251 0.578942
626 718 0.61742 0.325588 0.583394
627 718 0.615145 0.323787 0.575147
622 717 0.633265 0.31028 0.567067
628 720 0.638691 0.30987 0.567406
607 717 0.778565 0.387224 0.599757
613 720 0.778964 0.384362 0.595134
615 720 0.780802 0.392136 0.598941
1151 80 0.699038 0.0921644 0.628301
1152 431 0.691595 0.0928891 0.626706
1153 408 0.690823 0.0956683 0.620255
1154 406 0.684814 0.09796 0.618422
1155 407 0.679758 0.0979937 0.621922
1160 410 0.689117 0.0880417 0.626873
1161 410 0.689219 0.0960885 0.630431
1162 85 0.684081 0.0963768 0.607846
1158 85 0.699693 0.089972 0.633245
1157 85 0.701498 0.0970294 0.628264
1159 85 0.70156 0.0889431 0.624698
1110 431 0.18014 0.132649 0.612265
1116 85 0.180855 0.131133 0.601587
1117 85 0.172559 0.131307 0.604542
1118 410 0.180598 0.127363 0.613498
1156 80 0.68475 0.100547 0.611288
1163 85 0.68065 0.104071 0.610597
1164 85 0.689459 0.103048 0.610122
1119 410 0.185101 0.134878 0.612676
1109 80 0.177499 0.133533 0.605144
1111 408 0.1757 0.135719 0.616826
1112 406 0.177714 0.136711 0.623125
1113 407 0.183245 0.13528 0.625401
1114 80 0.1723 0.139815 0.627444
1115 85 0.177163 0.13882 0.603856
1120 85 0.168951 0.135914 0.629247
1121 85 0.174526 0.14234 0.631732
1122 85 0.169398 0.143429 0.624563
1430 85 0.308999 0.232329 0.627706
1423 124 0.309025 0.234346 0.632775
1431 85 0.313025 0.238053 0.633013
1136 85 0.805379 0.262228 0.62968
529 713 0.382441 0.297545 0.629041
530 712 0.378714 0.29848 0.624224
531 714 0.387393 0.293068 0.629256
532 717 0.389057 0.289401 0.623418
538 720 0.393601 0.286511 0.624269
539 720 0.385039 0.285968 0.622077
540 720 0.389921 0.292769 0.61921
535 720 0.368847 0.301645 0.633117
537 718 0.378337 0.309662 0.630561
118 718 0.936265 0.329928 0.620224
119 718 0.936648 0.333277 0.631555
115 712 0.955978 0.333471 0.622885
111 715 0.938797 0.334712 0.620931
112 715 0.93978 0.336332 0.628307
113 714 0.946633 0.335008 0.629238
114 713 0.949917 0.334173 0.62352
116 714 0.945427 0.334248 0.618618
117 718 0.936026 0.338617 0.618324
120 718 0.938787 0.341593 0.629307
601 717 0.784073 0.385163 0.626572
602 715 0.789174 0.38589 0.6209
603 714 0.786708 0.383149 0.614835
604 713 0.782683 0.386816 0.610919
605 712 0.780274 0.392269 0.612475
606 714 0.781882 0.383806 0.605011
608 720 0.785945 0.387388 0.63118
609 720 0.782959 0.379917 0.627553
610 720 0.779406 0.387669 0.625297
611 718 0.793782 0.383296 0.622221
612 718 0.790491 0.391142 0.620208
614 720 0.773284 0.387912 0.600925
586 717 0.178463 0.0531524 0.650821
587 715 0.172351 0.0565653 0.653938
588 714 0.173781 0.0589837 0.660457
589 713 0.176779 0.0649346 0.661217
593 720 0.177369 0.0514208 0.645771
594 720 0.180039 0.0488544 0.653782
595 720 0.182656 0.0566182 0.650512
596 718 0.168231 0.0530139 0.654278
597 718 0.17063 0.0606408 0.650742
590 712 0.179119 0.0683082 0.656622
600 720 0.176086 0.0770548 0.666506
102 715 0.562042 0.172997 0.666041
107 718 0.566442 0.181812 0.661361
109 718 0.559522 0.169403 0.662812
101 715 0.567716 0.176634 0.662496
108 718 0.569196 0.174093 0.657897
1427 416 0.295672 0.233115 0.644622
1424 124 0.310226 0.228832 0.637933
1425 431 0.308628 0.231691 0.644803
1432 85 0.306908 0.22462 0.636943
1433 85 0.315331 0.226931 0.637728
551 718 0.737016 0.219519 0.665953
1426 415 0.301628 0.236857 0.643178
1428 416 0.302706 0.243289 0.646232
1429 431 0.302374 0.237715 0.634389
1131 85 0.798295 0.24177 0.63911
1123 80 0.803468 0.241916 0.640823
1124 431 0.805253 0.248718 0.643823
1125 408 0.804339 0.253758 0.638954
1126 406 0.806851 0.259848 0.640098
1127 407 0.810055 0.261541 0.645068
1128 80 0.805246 0.264741 0.634524
1129 85 0.806706 0.240768 0.636589
1130 85 0.804103 0.237995 0.644552
1132 410 0.802101 0.249801 0.648131
1133 410 0.810432 0.248673 0.645533
1134 85 0.800263 0.266805 0.635292
1135 85 0.808856 0.268826 0.634503
526 717 0.37092 0.304961 0.636911
527 715 0.378158 0.306824 0.63522
528 714 0.382274 0.301059 0.634751
533 720 0.367764 0.309398 0.637138
534 720 0.370617 0.302418 0.641724
536 718 0.380178 0.310078 0.639097
1281 715 0.945908 0.0574135 0.699685
1288 718 0.941746 0.0579723 0.696212
1289 718 0.950513 0.0588769 0.697167
591 714 0.176627 0.0667681 0.667638
592 717 0.17871 0.0732951 0.669469
598 720 0.177619 0.0741865 0.674736
599 720 0.184069 0.073911 0.668674
103 714 0.565377 0.169859 0.671391
110 718 0.558374 0.176519 0.667993
104 713 0.571591 0.172063 0.672229
105 712 0.575393 0.17055 0.676799
106 714 0.572922 0.176218 0.667213
553 720 0.724213 0.198297 0.684401
471 714 0.628141 0.231085 0.682031
472 717 0.629421 0.226563 0.67672
479 720 0.624906 0.223814 0.675386
480 720 0.631179 0.229236 0.672297
478 720 0.633259 0.222986 0.678206
544 713 0.729743 0.212662 0.678736
545 712 0.726256 0.217038 0.681317
546 714 0.72936 0.206137 0.68011
547 717 0.724225 0.203749 0.684378
552 718 0.729797 0.222208 0.670085
554 720 0.724977 0.205507 0.689484
555 720 0.719339 0.205475 0.682664
541 717 0.739019 0.224927 0.675086
542 715 0.734777 0.220123 0.670885
543 714 0.73431 0.213734 0.673943
548 720 0.739251 0.229856 0.672774
549 720 0.744116 0.223075 0.675644
550 720 0.736887 0.22553 0.680064
466 717 0.613873 0.246629 0.687155
467 715 0.621425 0.246899 0.685882
468 714 0.624354 0.240447 0.686304
469 713 0.624175 0.236358 0.680991
470 712 0.620994 0.237437 0.675826
473 720 0.611638 0.251578 0.686699
474 720 0.612787 0.244732 0.69215
475 720 0.611426 0.243366 0.683542
476 718 0.623802 0.250122 0.689579
477 718 0.622438 0.249123 0.681002
496 717 0.941277 0.497315 0.683447
498 714 0.950304 0.498347 0.691584
499 713 0.956002 0.495922 0.689007
500 712 0.957454 0.495964 0.68302
501 714 0.959959 0.493693 0.693905
504 720 0.938208 0.494258 0.686758
505 720 0.944221 0.493971 0.68031
502 717 0.966611 0.491735 0.692418
509 720 0.966663 0.48723 0.689348
508 720 0.969329 0.490725 0.697035
510 720 0.969223 0.495692 0.689713
1282 715 0.944692 0.0613225 0.706127
1283 714 0.942575 0.05621 0.710498
1284 713 0.943752 0.0500969 0.708153
1285 712 0.942873 0.0448089 0.71115
1286 714 0.946094 0.0507637 0.701965
1290 788 0.949433 0.0632337 0.708032
128 718 0.566605 0.0730612 0.72972
130 718 0.575013 0.0852573 0.732056
121 715 0.571085 0.0758608 0.728344
124 713 0.580951 0.071955 0.732591
126 714 0.576521 0.0714454 0.72766
127 718 0.57014 0.078616 0.723736
1287 786 0.940856 0.0667718 0.704768
91 715 0.596546 0.329691 0.72625
92 715 0.595728 0.322206 0.727394
97 718 0.59695 0.33245 0.730934
98 718 0.592447 0.331751 0.723292
99 718 0.59067 0.320471 0.72635
100 718 0.597061 0.320847 0.732497
93 714 0.600434 0.319478 0.722922
94 713 0.604587 0.324027 0.720426
95 712 0.60944 0.322931 0.716839
96 714 0.60252 0.329982 0.722543
129 718 0.569579 0.0811859 0.737774
122 715 0.573417 0.0804185 0.733982
123 714 0.578986 0.0769383 0.736525
125 712 0.585943 0.0684738 0.733363
560 712 0.0936484 0.431403 0.762082
557 715 0.107401 0.431721 0.763365
563 720 0.111863 0.430606 0.753507
567 718 0.105502 0.426604 0.763438
566 718 0.112145 0.431654 0.766045
559 713 0.0963202 0.435243 0.766093
565 720 0.103825 0.434188 0.753412
556 717 0.108536 0.434022 0.756144
564 720 0.110753 0.439001 0.755993
1494 416 0.420702 0.49392 0.764683
646 717 0.484513 0.0932994 0.794845
647 715 0.488226 0.0996281 0.797055
653 720 0.479926 0.0945552 0.792185
654 720 0.483191 0.0901973 0.79913
655 720 0.48761 0.0903198 0.791495
649 713 0.499813 0.0967467 0.796801
650 712 0.499963 0.0961031 0.790675
652 717 0.511638 0.0960813 0.798008
659 720 0.512373 0.0912666 0.795557
657 718 0.489208 0.102839 0.792752
660 720 0.5124 0.100028 0.794314
234 720 0.938843 0.297884 0.792622
235 720 0.938074 0.297089 0.783837
240 717 0.554241 0.30998 0.778985
241 716 0.558223 0.311145 0.785427
242 715 0.554176 0.310194 0.791822
243 714 0.55858 0.306445 0.795829
244 713 0.563772 0.304004 0.792449
246 714 0.563295 0.30633 0.78621
247 720 0.557432 0.310653 0.774606
248 720 0.552168 0.304928 0.77884
249 720 0.550108 0.313509 0.778603
250 719 0.56058 0.316061 0.785395
251 718 0.552834 0.314936 0.794145
252 718 0.549637 0.3073 0.790952
245 712 0.568129 0.300292 0.794643
230 714 0.928173 0.311897 0.780006
231 713 0.924099 0.308286 0.78384
232 712 0.917979 0.308135 0.783525
233 714 0.927953 0.304829 0.788053
227 717 0.939317 0.300546 0.787879
228 716 0.934735 0.306687 0.787766
229 715 0.934985 0.310657 0.781258
236 720 0.944531 0.302014 0.787297
237 719 0.935752 0.309951 0.792013
238 718 0.937843 0.315269 0.781757
239 718 0.937059 0.307724 0.777157
570 720 0.0847529 0.433052 0.772158
561 714 0.0930737 0.439016 0.770547
562 717 0.0860612 0.438284 0.771311
568 720 0.0843414 0.4412 0.775584
569 720 0.083437 0.440014 0.766856
558 714 0.102941 0.436052 0.766791
1492 415 0.418164 0.499461 0.768521
1495 431 0.419949 0.498054 0.777087
644 720 0.087839 0.0655115 0.817452
263 719 0.28834 0.0520021 0.833234
634 713 0.0904432 0.0696959 0.8303
635 712 0.0843272 0.0704433 0.830284
636 714 0.0942363 0.0689431 0.824853
637 717 0.0913111 0.0696009 0.818426
643 720 0.0951943 0.0695332 0.8146
645 720 0.0885809 0.0743107 0.818027
648 714 0.494293 0.0980429 0.800382
651 714 0.505142 0.0965083 0.800821
658 720 0.515397 0.0966346 0.801917
656 718 0.485091 0.102509 0.800458
1261 715 0.112912 0.145838 0.821159
1262 715 0.111248 0.138393 0.821407
1263 714 0.112904 0.136805 0.828076
1264 713 0.113777 0.142169 0.831913
1266 714 0.113378 0.147511 0.827973
1267 786 0.114104 0.135272 0.816083
1268 718 0.117745 0.146711 0.818794
1269 718 0.109123 0.148761 0.818554
1270 788 0.105864 0.137704 0.820863
1173 85 0.951666 0.194543 0.832969
1349 712 0.029133 0.2365 0.816258
1351 89 0.0478516 0.23361 0.807664
1345 458 0.0432884 0.236038 0.809206
1346 458 0.0403785 0.241105 0.806139
1347 714 0.0346357 0.243193 0.809133
1348 713 0.0344466 0.237862 0.813479
1350 714 0.0399571 0.233954 0.814748
1352 89 0.0421435 0.243561 0.801655
631 717 0.0879739 0.0656978 0.84539
639 720 0.0914753 0.0616379 0.846381
640 720 0.0840023 0.0637607 0.842202
253 717 0.294503 0.0442386 0.837707
254 716 0.288725 0.0492661 0.837934
255 715 0.281985 0.0462049 0.839773
256 714 0.27946 0.0508427 0.844424
257 713 0.284027 0.0552129 0.846518
258 712 0.28325 0.0595247 0.850805
259 714 0.289621 0.0539667 0.843095
260 720 0.299185 0.0467502 0.836452
261 720 0.29513 0.0417435 0.842526
262 720 0.29359 0.0404149 0.833935
264 718 0.278713 0.0456586 0.83545
265 718 0.282541 0.0413536 0.842198
632 715 0.0914904 0.0716245 0.842039
633 714 0.0942975 0.069773 0.835788
638 720 0.0857222 0.0671859 0.850124
641 718 0.0954919 0.0734515 0.845257
642 718 0.088 0.0757707 0.841394
1408 85 0.798541 0.131765 0.864668
1265 712 0.114738 0.142199 0.837979
1404 415 0.79762 0.147959 0.857535
1405 416 0.79151 0.151343 0.859229
1407 431 0.796033 0.139246 0.857233
1401 124 0.800638 0.136348 0.862581
1403 431 0.803013 0.148281 0.864544
1406 416 0.801303 0.149855 0.85165
1409 85 0.805429 0.135043 0.860315
1170 80 0.932787 0.198678 0.847919
1176 85 0.930191 0.194103 0.846502
1165 80 0.953894 0.197265 0.837135
1166 431 0.950558 0.195474 0.843778
1167 408 0.943676 0.197051 0.843463
1168 406 0.940124 0.197159 0.849127
1169 407 0.942322 0.196101 0.854772
1172 85 0.959194 0.196015 0.8373
1174 410 0.951128 0.190163 0.84484
1175 410 0.952939 0.198236 0.847834
1177 85 0.930502 0.200664 0.852452
1178 85 0.932231 0.20233 0.843902
1171 85 0.953442 0.202604 0.836129
1297 786 0.438873 0.29667 0.843622
1300 788 0.446418 0.297217 0.849908
1292 715 0.444537 0.299904 0.845548
1291 715 0.442813 0.307077 0.847504
1293 714 0.44998 0.300902 0.841177
1294 713 0.452469 0.307065 0.84145
1295 712 0.45749 0.309101 0.838557
1296 714 0.448538 0.310618 0.845467
1298 718 0.438512 0.308916 0.844706
1299 718 0.441815 0.307629 0.852832
1437 415 0.82886 0.392064 0.847773
1438 416 0.824146 0.388285 0.843882
1439 416 0.828321 0.392246 0.854948
1435 124 0.83902 0.394553 0.840275
1436 431 0.83702 0.389453 0.845558
1443 85 0.836847 0.393103 0.835488
1444 85 0.844429 0.394679 0.839605
1440 431 0.829036 0.400376 0.844706
1434 124 0.836251 0.401347 0.842426
1441 85 0.836528 0.404964 0.838352
1442 85 0.839191 0.403354 0.846564
1410 85 0.797106 0.142102 0.871
1402 124 0.80164 0.141643 0.868005
1411 85 0.805684 0.140324 0.871414
582 718 0.806153 0.463662 0.896351
574 713 0.795851 0.471151 0.898282
575 712 0.794099 0.467326 0.893781
584 720 0.782533 0.474569 0.897672
571 717 0.809231 0.471801 0.889893
572 715 0.80749 0.468936 0.896783
573 714 0.802217 0.472572 0.899842
578 720 0.813194 0.468909 0.88752
579 720 0.810908 0.476974 0.89028
580 720 0.80489 0.471676 0.886601
1413 124 0.892771 0.174537 0.927049
1414 431 0.890353 0.181676 0.928112
1415 415 0.89433 0.186061 0.921535
1416 416 0.889756 0.186471 0.916005
1417 416 0.897359 0.192027 0.924183
1421 85 0.889754 0.172198 0.923155
1422 85 0.892147 0.171552 0.931567
1412 124 0.900079 0.174857 0.924825
1418 431 0.90072 0.180272 0.91949
1419 85 0.901765 0.170036 0.922908
1420 85 0.903283 0.176116 0.929061
1105 410 0.732604 0.220846 0.915233
1095 80 0.738065 0.211704 0.913513
1096 431 0.736532 0.219022 0.911916
1097 408 0.742392 0.22289 0.91272
1098 406 0.741867 0.229555 0.912876
1099 407 0.736634 0.232761 0.912476
1100 80 0.748609 0.232979 0.91352
1101 85 0.739735 0.211167 0.918675
1102 85 0.733592 0.208663 0.912856
1103 85 0.74194 0.209702 0.910243
1104 410 0.73474 0.219533 0.906798
1108 85 0.751915 0.230091 0.916763
1106 85 0.750911 0.233404 0.9086
1107 85 0.747993 0.237975 0.91561
576 714 0.791713 0.474293 0.902481
577 717 0.784778 0.472823 0.902324
583 720 0.782263 0.475274 0.906494
585 720 0.78394 0.467444 0.902728
581 718 0.81186 0.469167 0.900032
81 715 0.237686 0.177808 0.996729
83 714 0.249049 0.176886 0.997455
84 713 0.247611 0.178011 0.991065
85 712 0.251625 0.178274 0.986433
86 714 0.241026 0.178812 0.990617
87 718 0.234233 0.181882 0.997825
88 718 0.234925 0.173102 0.996563
73 714 0.916456 0.331957 0.982858
75 712 0.919597 0.333029 0.971948
78 718 0.901877 0.332724 0.981652
79 718 0.909465 0.330061 0.990315
80 718 0.912936 0.338229 0.990154
71 715 0.905938 0.336346 0.982093
72 715 0.911229 0.334072 0.987076
74 713 0.915585 0.333782 0.976527
76 714 0.90957 0.336577 0.976071
77 718 0.903868 0.341222 0.98338
676 717 0.0908705 0.647537 0.0248659
677 715 0.0977961 0.650771 0.0243162
678 714 0.0984429 0.654519 0.0183227
679 713 0.0961021 0.660798 0.0180515
680 712 0.0926963 0.663479 0.0224316
681 714 0.0982009 0.663799 0.0124623
683 720 0.090375 0.644766 0.0295318
684 720 0.0899791 0.644084 0.020742
685 720 0.086959 0.651329 0.0247678
687 718 0.0987447 0.653949 0.0286505
686 718 0.101639 0.646906 0.0243563
682 717 0.0970647 0.670741 0.0115752
689 720 0.0917404 0.671771 0.0110103
690 720 0.0989163 0.673561 0.0158666
688 720 0.0996573 0.672501 0.00711372
846 714 0.0639917 0.721921 0.00206879
847 717 0.0651413 0.728835 0.000987671
854 720 0.0652661 0.731541 0.00571965
841 717 0.0718726 0.705755 0.0142334
842 715 0.0717494 0.706785 0.00664137
843 714 0.0670098 0.71173 0.00477735
844 713 0.0686853 0.71822 0.00504835
845 712 0.0739047 0.720404 0.00748915
848 720 0.0756089 0.702046 0.0156405
849 720 0.0670261 0.704059 0.0160668
850 720 0.0731088 0.710407 0.0167885
851 718 0.070433 0.70211 0.0041681
852 718 0.0767172 0.70815 0.00484095
1353 458 0.0770282 0.910908 0.031922
1354 458 0.0722707 0.914928 0.0297422
1355 714 0.0736032 0.921531 0.0307037
1359 89 0.0769716 0.90552 0.0316756
1360 89 0.0676423 0.913414 0.0273888
714 720 0.528007 0.966231 0.00549124
1474 85 0.428722 0.999068 0.0254844
1467 124 0.433746 0.999037 0.0276096
1468 124 0.434672 0.993164 0.0324167
1477 85 0.434812 0.988389 0.0297926
1475 85 0.437255 0.998635 0.0234471
706 717 0.526281 0.971382 0.00595172
707 715 0.526927 0.973879 0.0131675
713 720 0.521102 0.97159 0.00427003
715 720 0.529245 0.974464 0.00257441
716 718 0.523995 0.970702 0.0164861
717 718 0.524866 0.978913 0.0136146
708 714 0.533682 0.97378 0.0153454
709 713 0.537748 0.97889 0.0138155
710 712 0.536322 0.983493 0.00997646
711 714 0.543452 0.97838 0.0172528
712 717 0.54812 0.983716 0.0171067
718 720 0.55212 0.982787 0.0206936
719 720 0.55032 0.984229 0.0121442
720 720 0.545697 0.98843 0.0184126