ITEM: TIMESTEP
46
ITEM: NUMBER OF ATOMS
14962
ITEM: BOX BOUNDS pp pp pp
-1.0000000000000000e+02 1.0000000000000000e+02
-1.0000000000000000e+02 1.0000000000000000e+02
-1.0000000000000000e+02 1.0000000000000000e+02
ITEM: ATOMS id type xs ys zs
8296 80 0.0149156 0.0314417 0.0125945
8303 85 0.0193692 0.0297229 0.0099529
8304 85 0.0160692 0.0316036 0.0179226
8305 85 0.0110174 0.0277067 0.0118463
4417 720 0.24257 0.00289524 0.0133561
4416 720 0.235269 0.000387802 0.0176873
3083 717 0.341797 0.00892467 0.0142878
3084 715 0.343273 0.0130476 0.00799111
3085 714 0.348727 0.0174589 0.0090343
3086 713 0.355013 0.0152338 0.00833482
3087 712 0.356601 0.00933728 0.00749276
3088 714 0.359268 0.0204005 0.00845743
3089 717 0.366124 0.0192873 0.00702045
3090 720 0.33767 0.00547977 0.0134143
3091 720 0.340453 0.0121447 0.0184766
3092 720 0.346135 0.00596705 0.0157507
3093 718 0.338906 0.0160313 0.00667307
3094 718 0.344267 0.00976522 0.0037437
3095 720 0.368769 0.024036 0.00670364
3096 720 0.368465 0.0162677 0.0109146
3097 720 0.366698 0.0166981 0.00225479
8297 81 0.012624 0.0383243 0.0100232
8298 406 0.0176306 0.0439668 0.0112757
8299 407 0.0157528 0.0498038 0.0117572
8300 408 0.0239956 0.0418923 0.0117254
8301 431 0.0290704 0.0466312 0.0131009
8306 85 0.00791607 0.0396921 0.0124063
8307 85 0.0116581 0.038097 0.0046656
8308 410 0.0280166 0.0491347 0.0178344
8309 410 0.0291743 0.0504526 0.00920752
8302 80 0.0358008 0.0430187 0.0134543
8310 85 0.0357489 0.039165 0.0173135
8311 85 0.0369799 0.0406366 0.00869487
8312 85 0.0398082 0.0465153 0.0146331
8080 431 0.429975 0.0644481 0.0300085
8081 80 0.423796 0.0658078 0.0257145
8088 410 0.431734 0.059341 0.0292358
8090 85 0.424922 0.0651345 0.0204236
8091 85 0.419748 0.0624071 0.0270275
8087 410 0.428754 0.0649836 0.0353007
8089 85 0.422003 0.0709081 0.0264326
8075 80 0.442587 0.0805759 0.0264431
8076 81 0.445877 0.0742203 0.0292736
8077 406 0.44091 0.0688542 0.0315109
8079 408 0.43505 0.0690572 0.028248
8082 85 0.43983 0.0795036 0.021859
8083 85 0.439116 0.0827727 0.0300301
8084 85 0.446355 0.0843305 0.0252541
8085 85 0.448991 0.0755225 0.0335538
8086 85 0.449182 0.0720031 0.025552
449 718 0.274029 0.112272 0.00042762
3068 717 0.0232273 0.159538 0.0112681
3069 715 0.0298606 0.163388 0.0112196
3075 720 0.019526 0.162032 0.00814738
3076 720 0.0212068 0.159165 0.0163178
3077 720 0.0238841 0.154486 0.00933192
3079 718 0.031653 0.164047 0.00610529
3070 714 0.0347656 0.160105 0.0151498
3071 713 0.0383283 0.155064 0.0125307
3072 712 0.0372295 0.152432 0.007066
3073 714 0.0433855 0.153493 0.0166225
3074 717 0.0482816 0.14884 0.014458
3080 720 0.0523425 0.148571 0.018075
3081 720 0.0461264 0.143858 0.0139124
3082 720 0.0503778 0.150346 0.00965346
3078 718 0.0291098 0.168384 0.0132679
434 713 0.241676 0.184272 0.000659542
435 712 0.240862 0.18951 0.00373792
436 714 0.239122 0.178333 0.0022481
3042 712 0.445255 0.232731 0.0319592
3044 717 0.454825 0.222963 0.0303408
3050 720 0.459182 0.219726 0.0307595
3051 720 0.450395 0.219828 0.0297808
3052 720 0.455375 0.225987 0.025836
3141 720 0.0312942 0.26561 0.0143352
3128 717 0.0149907 0.283151 0.028673
3129 715 0.0200347 0.286468 0.0239419
3130 714 0.0258909 0.282525 0.0232618
3131 713 0.0260213 0.277444 0.0188878
3132 712 0.0211335 0.275328 0.0157829
3133 714 0.032285 0.275179 0.0182233
3135 720 0.0104634 0.286152 0.0290752
3136 720 0.0170779 0.282566 0.0336752
3137 720 0.0135484 0.278221 0.0268517
3138 718 0.0214859 0.291338 0.0259129
3139 718 0.0177705 0.287367 0.0190566
3142 720 0.0319925 0.272082 0.00834016
3134 717 0.033724 0.270364 0.0132184
3140 720 0.0390952 0.269524 0.0129162
3035 720 0.109633 0.299814 0.024647
3026 713 0.101248 0.310123 0.0342832
3027 712 0.101284 0.315582 0.0314209
3028 714 0.103854 0.304467 0.0318295
3029 717 0.107335 0.304647 0.0256511
3036 720 0.103946 0.305828 0.0215421
3037 720 0.111275 0.308416 0.0257674
8034 85 0.12617 0.314716 0.0343866
8027 407 0.138501 0.317406 0.0320845
8042 81 0.462518 0.324486 0.0023983
8043 406 0.464823 0.32843 0.0085302
8051 85 0.465748 0.320125 0.00189022
8052 85 0.457502 0.322607 0.00339776
8044 407 0.467309 0.325571 0.0133747
8011 408 0.062107 0.364462 0.0339629
8015 85 0.0648258 0.357344 0.0216676
9426 85 0.0651049 0.336462 0.000187043
8007 80 0.0696049 0.359245 0.0234824
8014 85 0.0708448 0.35659 0.0280847
8016 85 0.0734111 0.357991 0.0197879
8045 408 0.463833 0.335049 0.00802804
8046 431 0.465941 0.33925 0.0133206
8047 80 0.46438 0.34651 0.011496
8054 410 0.463387 0.337866 0.0179394
8056 85 0.45902 0.347231 0.0108117
8057 85 0.466052 0.34989 0.0154276
8053 410 0.471298 0.338618 0.0141517
8055 85 0.466889 0.347943 0.00687065
8009 406 0.0637844 0.369086 0.0293981
8010 407 0.0612604 0.374673 0.0289092
8008 81 0.0693308 0.366848 0.0246361
8017 85 0.0685942 0.369398 0.0198744
8018 85 0.0740798 0.368617 0.0266389
8286 85 0.360925 0.3706 0.0341964
8288 85 0.353274 0.373999 0.0314945
118 718 0.491442 0.452574 0.0353043
119 718 0.498093 0.461561 0.0317549
10039 85 0.0162477 0.498133 0.0114462
3120 720 0.26818 0.0639695 0.0655565
8078 407 0.442389 0.0648142 0.0359062
3123 718 0.261269 0.0744702 0.0650048
3114 715 0.266647 0.0747234 0.0658548
3113 717 0.269099 0.0681409 0.0689357
3115 714 0.267947 0.0802178 0.0701484
3116 713 0.273989 0.0831281 0.070122
3117 712 0.278931 0.080978 0.0671312
3122 720 0.274457 0.0683159 0.0699187
3124 718 0.268965 0.075532 0.0609789
3127 720 0.280912 0.0943185 0.0684828
44 713 0.399462 0.197398 0.0512861
45 712 0.399327 0.191282 0.0516641
8367 407 0.114908 0.226289 0.068369
8369 431 0.128339 0.22922 0.0684977
8377 410 0.128086 0.22508 0.064953
8370 80 0.135592 0.230535 0.0705309
8380 85 0.138607 0.231842 0.0661863
3180 720 0.266484 0.229629 0.0519294
3187 720 0.297612 0.226882 0.0412729
3184 718 0.274351 0.225032 0.0434261
3173 717 0.271081 0.232318 0.0507879
3174 715 0.273671 0.230434 0.0438182
3176 713 0.285563 0.231322 0.044538
3177 712 0.286135 0.226624 0.048488
3179 717 0.297264 0.232168 0.0425706
3182 720 0.274729 0.231058 0.0546362
3183 718 0.269991 0.231824 0.040045
3186 720 0.298824 0.232772 0.0477632
42 715 0.396815 0.208051 0.0481405
43 714 0.395984 0.20115 0.0470358
49 718 0.397911 0.210732 0.0435242
50 718 0.39229 0.210104 0.0503744
41 715 0.40265 0.208224 0.0530321
46 714 0.40312 0.201499 0.0550446
47 718 0.401729 0.21156 0.0572424
48 718 0.407263 0.20972 0.050542
3041 713 0.449595 0.231864 0.0362509
3043 714 0.454289 0.227098 0.0360788
8376 410 0.126236 0.233617 0.0660418
3175 714 0.279735 0.233801 0.0423352
3178 714 0.290651 0.234548 0.0416213
3181 720 0.270043 0.237659 0.0511225
3185 720 0.300725 0.234927 0.0394001
3038 717 0.439794 0.240568 0.0450361
3039 715 0.446857 0.241794 0.0423064
3040 714 0.450462 0.23572 0.0416687
3045 720 0.437033 0.245248 0.0454082
3046 720 0.439968 0.238307 0.0499934
3047 720 0.436979 0.237246 0.0417584
3048 718 0.449607 0.245051 0.0457035
3049 718 0.44663 0.244376 0.0375022
2281 717 0.31389 0.282226 0.0658418
2282 716 0.320171 0.286115 0.0678476
2285 713 0.331278 0.283425 0.0674584
2287 714 0.32569 0.284241 0.0639061
2288 720 0.31242 0.283427 0.0607374
2289 720 0.314741 0.276851 0.0660981
2290 720 0.309689 0.283412 0.069106
2291 719 0.31938 0.291476 0.067261
2286 712 0.336885 0.282345 0.0652344
3023 717 0.089563 0.316681 0.0426866
3024 715 0.0967057 0.314495 0.0444327
3025 714 0.0987816 0.309025 0.0404219
3030 720 0.0880616 0.320955 0.0457104
3031 720 0.0859993 0.312652 0.043572
3032 720 0.0891888 0.318153 0.0374525
3033 718 0.0969353 0.312951 0.0496549
3034 718 0.100172 0.318677 0.0438837
8024 80 0.12481 0.318767 0.044325
8025 81 0.128983 0.315033 0.0390456
8031 85 0.127292 0.318756 0.0491829
8032 85 0.123959 0.323953 0.0428666
8033 85 0.119943 0.316394 0.0449546
8035 85 0.129901 0.309912 0.0406636
8026 406 0.135741 0.318269 0.0375136
8028 408 0.138205 0.321947 0.0425618
8029 431 0.144341 0.325356 0.0416451
8030 80 0.146042 0.32919 0.048039
8036 410 0.143919 0.328799 0.0374322
8037 410 0.148306 0.321797 0.0404642
8038 85 0.142103 0.332748 0.0492894
8039 85 0.146646 0.325777 0.0522465
8040 85 0.150686 0.331974 0.0474396
8316 407 0.217547 0.322939 0.0708741
8323 85 0.224533 0.312353 0.0691363
8012 431 0.0568999 0.365887 0.0385408
8013 80 0.0557673 0.359773 0.0429903
8021 85 0.0544622 0.355401 0.0400023
8022 85 0.0602545 0.358595 0.0458527
8023 85 0.0517055 0.360673 0.0465069
91 715 0.32744 0.346643 0.0713721
97 718 0.32601 0.349851 0.0672047
98 718 0.324349 0.342154 0.0713143
96 714 0.334236 0.344843 0.071104
8285 80 0.37233 0.363009 0.0506602
8293 85 0.369268 0.358999 0.0485891
8294 85 0.376072 0.364381 0.046941
8295 85 0.374927 0.361047 0.0550288
8019 410 0.0523311 0.36711 0.0358171
8020 410 0.0582143 0.370226 0.0415767
8279 80 0.356094 0.372476 0.0359024
8291 410 0.364403 0.367651 0.056387
8280 81 0.35695 0.378382 0.0407623
8281 406 0.360477 0.376573 0.047301
8282 407 0.359455 0.379797 0.0524377
8283 408 0.364633 0.371332 0.0467762
8287 85 0.353414 0.36835 0.038255
8289 85 0.352063 0.380454 0.0420023
8290 85 0.359783 0.382378 0.0383762
8284 431 0.368027 0.369041 0.0525501
8292 410 0.371143 0.373024 0.0545978
61 715 0.426227 0.414523 0.0572166
62 715 0.423819 0.412572 0.0641738
63 714 0.42896 0.408313 0.0664051
66 714 0.432911 0.412326 0.0572687
67 718 0.425844 0.419884 0.0563156
68 718 0.423451 0.411858 0.0533553
69 718 0.418994 0.410041 0.0640514
70 718 0.423483 0.416913 0.0674484
64 713 0.434332 0.408446 0.0624878
65 712 0.439622 0.405516 0.0634941
8126 80 0.0590368 0.442473 0.0591048
8127 81 0.0606641 0.442567 0.0515825
8128 406 0.0621262 0.44953 0.048781
8129 407 0.061101 0.450835 0.0428588
8130 408 0.0645655 0.45382 0.0533265
8131 431 0.0659298 0.460488 0.051384
8133 85 0.0633168 0.444089 0.0620774
8134 85 0.0548385 0.445755 0.0602642
8135 85 0.0577161 0.437441 0.0607299
8136 85 0.0564871 0.440466 0.0487799
8137 85 0.0649815 0.439403 0.0505615
8138 410 0.0613891 0.462806 0.0494369
8140 85 0.0648078 0.464313 0.0614924
8132 80 0.0684836 0.46436 0.0574633
8139 410 0.069651 0.460552 0.0473943
8141 85 0.0731024 0.462171 0.059359
111 715 0.493374 0.455479 0.0394926
112 715 0.49691 0.461775 0.0370703
114 713 0.487195 0.464652 0.0423365
116 714 0.488018 0.458106 0.0432222
117 718 0.496616 0.452313 0.0425198
8142 85 0.0694812 0.469555 0.056165
113 714 0.492192 0.466797 0.0385074
115 712 0.482654 0.468079 0.0446183
3121 720 0.266548 0.0670984 0.0736392
3118 714 0.27378 0.0888325 0.0736202
3119 717 0.279429 0.0931226 0.073593
3125 720 0.278262 0.0977799 0.0761606
3126 720 0.283664 0.0907793 0.0761107
8397 85 0.0304388 0.15438 0.0889401
8396 85 0.0257527 0.155598 0.0963147
8395 85 0.0220371 0.156999 0.088428
8394 410 0.0267552 0.143355 0.0937145
8393 410 0.023176 0.14471 0.0857868
8392 85 0.00710534 0.138889 0.102179
8391 85 0.00378898 0.136248 0.0945325
8389 85 0.00286184 0.148419 0.0908415
8388 85 0.00568879 0.150891 0.098833
8381 80 0.00312462 0.146938 0.0960834
8382 81 0.00672358 0.140185 0.0969004
8383 406 0.0137598 0.140009 0.0939136
8384 407 0.0162168 0.134736 0.091917
8385 408 0.0167862 0.145996 0.0937562
8386 431 0.0232616 0.146499 0.0909424
8387 80 0.0255033 0.153806 0.0911727
8364 80 0.117855 0.228379 0.0864113
8365 81 0.114486 0.225083 0.0803267
8366 406 0.118012 0.226432 0.0736768
8368 408 0.124574 0.227694 0.0742935
8371 85 0.122848 0.226348 0.0872516
8373 85 0.114942 0.227505 0.0909347
8374 85 0.109348 0.226855 0.0798977
8375 85 0.114225 0.219686 0.0810236
8379 85 0.13779 0.226117 0.072848
8372 85 0.118314 0.233772 0.0857387
8378 85 0.135906 0.234653 0.0740924
2283 715 0.322673 0.284544 0.0748817
2284 714 0.329608 0.283927 0.0738754
2292 718 0.321479 0.28849 0.0784492
2293 718 0.32069 0.279808 0.076731
8313 80 0.225064 0.308352 0.0791773
8314 81 0.225141 0.314235 0.0742163
8315 406 0.219698 0.319459 0.0754654
8317 408 0.217676 0.319791 0.0818552
8318 431 0.212516 0.324314 0.083596
8319 80 0.211055 0.323646 0.091072
8320 85 0.226145 0.31003 0.0842548
8321 85 0.220213 0.30586 0.079216
8322 85 0.228831 0.304649 0.0778336
8324 85 0.229964 0.316764 0.0743802
8325 410 0.208034 0.323203 0.0806869
8326 410 0.214021 0.329422 0.0824089
8327 85 0.209562 0.318552 0.092323
8328 85 0.215458 0.324899 0.0940306
8329 85 0.207016 0.326987 0.0925539
92 715 0.326964 0.350221 0.0780789
99 718 0.322717 0.348507 0.0810328
100 718 0.326635 0.35562 0.0774316
93 714 0.3331 0.348567 0.0811055
94 713 0.337385 0.345696 0.0769068
95 712 0.34317 0.344106 0.0781621
3164 717 0.176127 0.397257 0.102761
3170 720 0.177695 0.393839 0.106699
3171 720 0.171328 0.395551 0.100807
3172 720 0.179804 0.397026 0.0987399
8341 85 0.0699844 0.424913 0.106843
3166 720 0.164937 0.424039 0.103562
3167 720 0.165207 0.419385 0.0960686
3158 717 0.167828 0.423136 0.0990285
3159 715 0.174953 0.420841 0.1007
3160 714 0.174909 0.414756 0.104343
3161 713 0.174411 0.408911 0.101094
3162 712 0.173239 0.408307 0.0950723
3163 714 0.175619 0.403855 0.105312
3165 720 0.167917 0.427751 0.0961371
3168 718 0.177442 0.424619 0.103739
3169 718 0.177908 0.420304 0.0961409
8180 407 0.339361 0.432501 0.100949
8333 407 0.0624741 0.436675 0.103575
8343 410 0.0718915 0.4466 0.104697
8248 407 0.281502 0.442001 0.107038
8181 408 0.330442 0.439488 0.0994995
8182 431 0.332292 0.441066 0.0928524
8183 80 0.327172 0.445939 0.0899376
8189 410 0.332478 0.436506 0.0898603
8191 85 0.322162 0.443785 0.0900094
8192 85 0.327065 0.450581 0.0927939
8193 85 0.328396 0.447161 0.0847722
8179 406 0.334207 0.435167 0.102988
8190 410 0.337277 0.443285 0.0927739
8196 406 0.193343 0.0325074 0.141967
4158 718 0.458677 0.00107736 0.131819
4159 718 0.460121 0.00181005 0.123221
8197 407 0.187879 0.0338181 0.139467
8198 408 0.199214 0.0351208 0.140034
8199 431 0.199292 0.0399258 0.134838
8206 410 0.196136 0.0441649 0.136199
8207 410 0.197258 0.0377648 0.130259
8200 80 0.206493 0.04224 0.133712
8208 85 0.208585 0.0443952 0.138265
8209 85 0.209659 0.0380677 0.132201
8210 85 0.206713 0.0460314 0.129807
2298 713 0.278935 0.0635781 0.138422
2299 712 0.284501 0.0616854 0.136694
2305 718 0.264354 0.0682095 0.135519
2297 714 0.274655 0.0671181 0.134764
2296 715 0.268931 0.0690895 0.138349
2306 718 0.269292 0.0744022 0.139546
21 715 0.413987 0.0970816 0.127181
22 715 0.419274 0.0916743 0.128089
23 714 0.421329 0.0904515 0.121471
24 713 0.419044 0.0949681 0.117159
25 712 0.420443 0.0953105 0.111203
26 714 0.41498 0.0990496 0.1205
28 718 0.408965 0.0950473 0.127779
29 718 0.417264 0.0871954 0.130455
30 718 0.4235 0.0934979 0.131002
6 714 0.464704 0.0979039 0.136496
8 718 0.454562 0.0990471 0.137369
4 713 0.467384 0.0925668 0.139447
5 712 0.471919 0.0890822 0.13724
8071 410 0.199595 0.108963 0.139404
27 718 0.414657 0.101233 0.130649
1 715 0.459143 0.100453 0.139971
7 718 0.459322 0.105877 0.14047
7978 431 0.113619 0.29635 0.127717
7979 80 0.108712 0.291922 0.123873
7985 410 0.111819 0.297202 0.132798
7986 410 0.118485 0.293908 0.128085
7987 85 0.103833 0.294323 0.123453
7988 85 0.110543 0.290912 0.118839
7989 85 0.108021 0.287152 0.126411
7973 80 0.111905 0.31509 0.118921
7974 81 0.118352 0.31377 0.122913
7975 406 0.11829 0.307248 0.126903
7976 407 0.121737 0.3066 0.131956
7977 408 0.114253 0.302539 0.124341
7980 85 0.111158 0.311311 0.115058
7981 85 0.107527 0.315076 0.122171
7982 85 0.112129 0.319943 0.116449
7983 85 0.119215 0.31787 0.1264
7984 85 0.122642 0.313645 0.119556
2320 717 0.41084 0.315856 0.131175
2321 716 0.418222 0.317838 0.131591
2322 715 0.42288 0.31207 0.133392
2323 714 0.428187 0.312993 0.128867
2324 713 0.426732 0.317254 0.123974
2325 712 0.430246 0.318564 0.119129
2326 714 0.420694 0.319768 0.125292
2327 720 0.407773 0.320117 0.129725
2328 720 0.410066 0.311927 0.127483
2329 720 0.408998 0.314034 0.13597
2330 719 0.418906 0.321991 0.135053
2331 718 0.424563 0.31229 0.138574
2332 718 0.420553 0.307219 0.132477
8160 80 0.379978 0.36317 0.131803
8161 81 0.37302 0.359975 0.132582
8162 406 0.371794 0.356781 0.13942
8163 407 0.367883 0.352075 0.140056
8168 85 0.383939 0.35956 0.132809
8169 85 0.38068 0.365049 0.126736
8170 85 0.372335 0.356131 0.128778
8171 85 0.369139 0.363708 0.13175
8167 85 0.380616 0.367377 0.135219
8340 85 0.0616569 0.425361 0.109473
8331 81 0.0665997 0.427538 0.110212
8338 85 0.0655913 0.429268 0.120954
8330 80 0.0688064 0.426517 0.117513
8337 85 0.0739387 0.4282 0.118283
8339 85 0.0685829 0.421245 0.118876
8245 80 0.270918 0.431465 0.117865
8246 81 0.276082 0.432628 0.112275
8252 85 0.273208 0.431893 0.122798
8254 85 0.268754 0.426477 0.117485
8255 85 0.273756 0.431744 0.107425
8256 85 0.280166 0.429049 0.112724
8185 85 0.321258 0.431448 0.107177
8186 85 0.322322 0.433164 0.115753
8187 85 0.332974 0.42864 0.111343
8342 410 0.0655931 0.447864 0.110716
8332 406 0.0663043 0.434859 0.10803
8334 408 0.070534 0.438855 0.111371
8335 431 0.0705776 0.445785 0.10993
8336 80 0.0756366 0.449238 0.114508
8344 85 0.0743774 0.448446 0.119755
8345 85 0.0806618 0.447303 0.113659
8346 85 0.0757146 0.454608 0.113596
8247 406 0.279112 0.43965 0.112195
8249 408 0.278886 0.44277 0.118132
8250 431 0.28131 0.449401 0.118628
8251 80 0.280623 0.451745 0.125874
8253 85 0.266842 0.435076 0.117575
8257 410 0.27845 0.45265 0.115305
8258 410 0.28653 0.449623 0.117055
8259 85 0.27543 0.4515 0.127523
8260 85 0.283609 0.448635 0.129211
8261 85 0.28231 0.456897 0.126405
8177 80 0.323946 0.434576 0.110746
8178 81 0.33156 0.433735 0.110016
8184 85 0.322438 0.439755 0.109927
8188 85 0.334153 0.437034 0.113493
8195 81 0.193932 0.0275343 0.147745
8203 85 0.199927 0.0252892 0.156555
8204 85 0.189327 0.0277765 0.150652
8205 85 0.194182 0.0225195 0.145627
8194 80 0.199968 0.0287655 0.152357
8201 85 0.204674 0.0280634 0.149688
8202 85 0.199911 0.0338285 0.154383
2304 719 0.266128 0.0603869 0.144128
2295 716 0.269379 0.0647359 0.144598
2300 714 0.276063 0.0625516 0.144356
2301 720 0.26849 0.0651896 0.155408
130 718 0.332762 0.0518371 0.165832
129 718 0.331183 0.0435657 0.168659
128 718 0.32689 0.0403571 0.158225
127 718 0.326305 0.049033 0.15641
121 715 0.329674 0.0450353 0.157949
122 715 0.333153 0.0465571 0.164552
126 714 0.335099 0.0443056 0.153528
123 714 0.339858 0.0449579 0.163126
124 713 0.340969 0.0439403 0.156648
125 712 0.346406 0.042854 0.154035
3155 720 0.0571441 0.0668673 0.160838
3143 717 0.0437666 0.0956705 0.158277
3144 715 0.0402993 0.0888315 0.158474
3145 714 0.044783 0.0836254 0.156714
3146 713 0.0488932 0.0810446 0.161342
3147 712 0.049713 0.0833337 0.167006
3148 714 0.0517777 0.0754881 0.158974
3149 717 0.0556587 0.0714679 0.163342
3150 720 0.0403176 0.0996244 0.159738
3151 720 0.0456098 0.0967982 0.153272
3152 720 0.0479954 0.0958188 0.161712
3153 718 0.0361502 0.0887647 0.154939
3154 718 0.0381633 0.0879111 0.163413
3156 720 0.0601653 0.0741034 0.164925
3157 720 0.0527924 0.0701375 0.167788
2303 720 0.262869 0.0704849 0.151182
2294 717 0.267941 0.0684915 0.151112
2302 720 0.271386 0.0726588 0.151777
2 715 0.459681 0.0968902 0.146678
3 714 0.4642 0.0916951 0.145225
9 718 0.454875 0.0950041 0.148424
8272 85 0.0956073 0.13282 0.168635
8271 85 0.106477 0.131692 0.174472
8273 85 0.101973 0.132249 0.162669
8063 431 0.198765 0.109751 0.144739
8064 80 0.191479 0.111678 0.146036
8070 410 0.19997 0.105084 0.147297
8072 85 0.190594 0.112497 0.151355
8073 85 0.190178 0.116253 0.143375
8074 85 0.188114 0.107733 0.144365
8058 80 0.209938 0.123835 0.155159
8059 81 0.213583 0.12007 0.149522
8060 406 0.209617 0.11423 0.146581
8061 407 0.212487 0.109447 0.143992
8062 408 0.202964 0.114931 0.147113
8065 85 0.205411 0.126259 0.153315
8066 85 0.208524 0.120459 0.159201
8067 85 0.213136 0.127713 0.157267
8068 85 0.218318 0.118118 0.151389
8069 85 0.214795 0.123492 0.145459
10 718 0.461822 0.100146 0.150485
8264 406 0.0974965 0.141909 0.163367
8265 407 0.091929 0.142244 0.160775
8274 410 0.0956939 0.155106 0.163513
8275 410 0.0989926 0.152784 0.155688
8263 81 0.0999419 0.135427 0.166602
8267 431 0.100165 0.153244 0.160997
8262 80 0.105178 0.136449 0.17215
8266 408 0.101942 0.146928 0.163651
8268 80 0.105992 0.15809 0.162019
8269 85 0.109771 0.138619 0.170163
8270 85 0.103298 0.139754 0.17606
8276 85 0.107223 0.158574 0.167309
8277 85 0.110442 0.156355 0.159393
8278 85 0.104735 0.163042 0.160129
3013 714 0.0321015 0.331714 0.159333
3014 717 0.0323189 0.327142 0.153916
3021 720 0.0278235 0.324055 0.153795
3022 720 0.032712 0.329798 0.14917
3020 720 0.0366434 0.323869 0.154398
3008 717 0.0183607 0.346266 0.167803
3009 715 0.0253033 0.34708 0.164645
3010 714 0.0287369 0.34088 0.164351
3011 713 0.027579 0.336651 0.159277
3012 712 0.0231374 0.337336 0.15506
3015 720 0.0157172 0.351027 0.167902
3016 720 0.0187327 0.344434 0.172924
3017 720 0.0153186 0.342748 0.164962
3018 718 0.0282894 0.350536 0.167621
3019 718 0.0248892 0.349264 0.159659
8006 85 0.0756292 0.339242 0.178379
8164 408 0.375307 0.3596 0.144392
8165 431 0.374718 0.356979 0.150941
8166 80 0.379346 0.360888 0.155606
8172 410 0.376069 0.351691 0.150937
8173 410 0.369549 0.357352 0.152648
8174 85 0.384528 0.36057 0.153937
8175 85 0.37794 0.366153 0.155777
8176 85 0.379094 0.358913 0.160677
2967 712 0.255867 0.373937 0.176465
2968 714 0.244866 0.376974 0.176107
2969 717 0.245212 0.37891 0.169293
2975 720 0.240256 0.380227 0.167465
2976 720 0.248486 0.383227 0.168661
2977 720 0.247131 0.374829 0.166227
3199 718 0.36613 0.391903 0.166837
3198 718 0.364464 0.399348 0.171124
3197 720 0.363755 0.385404 0.177525
3195 720 0.356803 0.390115 0.174911
3189 715 0.366336 0.394267 0.171753
3188 717 0.361918 0.390476 0.176746
3202 720 0.388739 0.385642 0.167608
3201 720 0.388692 0.382557 0.175903
3200 720 0.393638 0.389581 0.173807
3194 717 0.388892 0.387084 0.172866
3193 714 0.383502 0.39142 0.174432
3192 712 0.375634 0.384051 0.170666
3191 713 0.377252 0.389552 0.172931
3190 714 0.37304 0.394651 0.174035
2982 712 0.0980382 0.414285 0.168283
2987 720 0.089431 0.409613 0.177851
2989 718 0.0931275 0.421795 0.177592
2981 713 0.102438 0.414386 0.172599
2983 714 0.108954 0.413336 0.171487
2984 717 0.111257 0.412598 0.164819
2990 720 0.116697 0.412389 0.164724
2991 720 0.109315 0.408015 0.162585
2992 720 0.109661 0.416818 0.161755
2952 712 0.0628228 0.499961 0.173655
2951 713 0.0612274 0.494147 0.174936
2953 714 0.0597446 0.489464 0.170388
2954 717 0.0605137 0.49096 0.163497
2960 720 0.0596962 0.486488 0.160502
2961 720 0.0569389 0.494768 0.161922
2962 720 0.0655463 0.492798 0.162477
2998 714 0.119531 0.49814 0.172917
2999 717 0.118778 0.493332 0.167758
3005 720 0.118968 0.49576 0.162888
3006 720 0.122752 0.489601 0.167982
3007 720 0.113983 0.49077 0.168198
3104 717 0.263592 0.0111609 0.212704
3112 720 0.261026 0.0115019 0.207903
3110 720 0.268695 0.0094964 0.21179
9798 80 0.36264 0.00106792 0.209271
9799 85 0.341208 0.000801986 0.208759
9806 85 0.360877 0.00515728 0.206123
9808 85 0.368084 0.0010273 0.209074
8229 81 0.0974903 0.229823 0.213829
8239 85 0.0942511 0.228237 0.209744
8235 85 0.106191 0.22437 0.210075
8230 406 0.0996871 0.237014 0.212434
8231 407 0.0960788 0.241766 0.213923
8232 408 0.105705 0.23749 0.209504
8233 431 0.108369 0.243904 0.208145
8234 80 0.115227 0.243093 0.204862
8240 410 0.108816 0.246731 0.212791
8241 410 0.105011 0.24667 0.204853
8242 85 0.118625 0.240312 0.208098
8243 85 0.114811 0.240411 0.200135
8244 85 0.117471 0.247954 0.203856
8159 85 0.233854 0.238109 0.213447
101 715 0.285475 0.264626 0.196611
106 714 0.29057 0.264398 0.191765
107 718 0.280744 0.266354 0.194528
108 718 0.284773 0.259669 0.198768
102 715 0.288328 0.269476 0.201743
103 714 0.295066 0.269964 0.199765
104 713 0.296231 0.267243 0.193808
109 718 0.287838 0.26761 0.20684
110 718 0.285956 0.274366 0.201388
105 712 0.301554 0.267325 0.190769
7993 407 0.065132 0.359574 0.186948
8002 410 0.0723323 0.351284 0.178721
7990 80 0.0797904 0.360376 0.198059
7991 81 0.072353 0.361436 0.196386
7992 406 0.0699463 0.357596 0.190225
7994 408 0.0735208 0.352069 0.188913
7995 431 0.0718951 0.348207 0.183208
7996 80 0.0766614 0.342242 0.182808
7997 85 0.0808024 0.355181 0.199382
7998 85 0.0829769 0.361696 0.193834
7999 85 0.0812733 0.363468 0.202296
8001 85 0.0692508 0.359943 0.200609
8003 410 0.0667276 0.346481 0.18352
8004 85 0.0818497 0.343901 0.18254
8005 85 0.0761256 0.339036 0.187184
2973 718 0.250682 0.365428 0.192559
2974 718 0.256057 0.364936 0.185672
81 715 0.445033 0.354821 0.208468
82 715 0.443674 0.360612 0.213225
86 714 0.44846 0.350264 0.21259
87 718 0.448017 0.356329 0.204164
88 718 0.440383 0.352577 0.206722
89 718 0.438512 0.362339 0.212949
90 718 0.447019 0.364802 0.212261
8000 85 0.071403 0.366737 0.195543
2963 717 0.258398 0.372998 0.192564
2964 715 0.253419 0.368434 0.188929
2965 714 0.248716 0.37221 0.185198
2966 713 0.250298 0.374416 0.179067
2970 720 0.262059 0.370053 0.195319
2971 720 0.25585 0.376265 0.196108
2972 720 0.261122 0.376132 0.189034
3196 720 0.361804 0.392997 0.181579
2978 717 0.0901814 0.412513 0.182403
2979 715 0.0951341 0.418251 0.181227
2985 720 0.085328 0.414442 0.183948
2986 720 0.0919722 0.409134 0.186288
2988 718 0.0958813 0.421021 0.185862
2980 714 0.101435 0.415806 0.179076
2307 717 0.258106 0.428288 0.198041
2308 716 0.264108 0.423555 0.198466
2311 713 0.265219 0.412937 0.20257
2312 712 0.26482 0.406838 0.202998
2313 714 0.262072 0.416825 0.198154
2314 720 0.255603 0.42781 0.193228
2315 720 0.25445 0.42718 0.201925
2319 718 0.264637 0.425895 0.209105
2309 715 0.267755 0.423767 0.205163
2310 714 0.268822 0.416936 0.206473
2317 719 0.267584 0.424489 0.194374
2318 718 0.272438 0.426545 0.2049
2316 720 0.259631 0.433489 0.198616
8347 80 0.399027 0.444732 0.209847
8348 81 0.39903 0.440775 0.203245
8355 85 0.396042 0.449277 0.209428
8356 85 0.396938 0.441732 0.21389
8357 85 0.393987 0.439007 0.20217
8350 407 0.399612 0.443345 0.191512
8349 406 0.401472 0.444768 0.197199
8351 408 0.405701 0.449739 0.19876
8352 431 0.408146 0.453918 0.193597
8353 80 0.41274 0.459209 0.196659
8354 85 0.404087 0.446159 0.211303
8358 85 0.402171 0.436348 0.203714
8359 410 0.403966 0.456303 0.191024
8360 410 0.410866 0.450951 0.189913
8361 85 0.410079 0.462195 0.200366
8362 85 0.417018 0.456882 0.199108
8363 85 0.414619 0.462587 0.192821
2949 715 0.0634351 0.495184 0.186631
2950 714 0.0609617 0.491505 0.181095
2956 720 0.0537145 0.49754 0.190957
2958 718 0.0647545 0.491648 0.190564
2959 718 0.0680294 0.497802 0.185274
3000 720 0.121153 0.498068 0.199602
2993 717 0.122702 0.498629 0.194411
2996 713 0.118691 0.496264 0.179287
2997 712 0.117754 0.490477 0.18119
3002 720 0.124529 0.493788 0.192701
3004 718 0.112593 0.497673 0.190558
2935 714 0.051011 0.0253546 0.248454
2936 713 0.0533009 0.0308379 0.245347
2938 714 0.0532957 0.0298658 0.238724
2945 720 0.0563978 0.0329223 0.229365
3098 717 0.249531 0.0305994 0.226002
3099 715 0.253749 0.031562 0.219668
3100 714 0.259013 0.0268196 0.219336
3101 713 0.257832 0.0206731 0.216929
3102 712 0.252254 0.0184203 0.215583
3103 714 0.263622 0.0174527 0.215978
3106 720 0.252543 0.0312781 0.230494
3107 720 0.247353 0.0256066 0.226164
3109 718 0.250612 0.0312328 0.215213
3111 720 0.261067 0.00739902 0.215742
9807 85 0.36114 0.0021124 0.214407
2937 712 0.0553183 0.0359237 0.248187
2939 717 0.0562813 0.0347212 0.234503
2946 720 0.0534756 0.0393983 0.234629
2947 720 0.0614054 0.0357429 0.236067
51 715 0.115863 0.049009 0.227662
52 715 0.119791 0.0537791 0.232115
53 714 0.119226 0.0507426 0.238439
54 713 0.116723 0.0445867 0.238156
55 712 0.116073 0.0407221 0.242869
56 714 0.115053 0.0433946 0.231823
57 718 0.118535 0.0477832 0.223072
58 718 0.11098 0.0510734 0.226392
59 718 0.117709 0.0588151 0.232085
60 718 0.125033 0.0539991 0.230652
3105 720 0.245437 0.0341889 0.226157
3108 718 0.255954 0.0365469 0.219662
8122 410 0.298973 0.0609063 0.222695
8114 431 0.302551 0.0644168 0.224852
8115 80 0.30874 0.060695 0.227365
8123 85 0.312342 0.0641562 0.229553
8124 85 0.30739 0.0570248 0.231163
8125 85 0.311206 0.0580713 0.223277
8109 80 0.297031 0.0767972 0.240598
8110 81 0.291583 0.0752666 0.235382
8111 406 0.294136 0.0716173 0.229166
8112 407 0.291258 0.0721855 0.22376
8113 408 0.299597 0.0678766 0.230274
8116 85 0.299134 0.0722094 0.242671
8118 85 0.294978 0.0796821 0.244741
8119 85 0.28924 0.0799152 0.233765
8120 85 0.28765 0.0722281 0.237616
8117 85 0.301109 0.0796876 0.238414
8121 410 0.303936 0.0679629 0.220941
31 715 0.15962 0.107797 0.245533
32 715 0.157523 0.114771 0.24776
37 718 0.163187 0.10792 0.241414
38 718 0.155298 0.104816 0.244067
39 718 0.152447 0.115997 0.246199
40 718 0.160943 0.118569 0.245877
3053 717 0.23805 0.123933 0.232276
3054 715 0.24482 0.126998 0.234176
3055 714 0.250135 0.12247 0.232933
3056 713 0.252742 0.121976 0.226775
3057 712 0.250421 0.124656 0.221732
3058 714 0.258364 0.118348 0.226974
3059 717 0.262377 0.117847 0.221146
3060 720 0.234013 0.127485 0.233142
3061 720 0.237022 0.119458 0.235216
3062 720 0.237935 0.122558 0.227004
3063 718 0.244856 0.128241 0.239483
3064 718 0.245631 0.131669 0.23147
3066 720 0.259785 0.115068 0.217232
3067 720 0.263603 0.1228 0.21922
3065 720 0.267032 0.115266 0.222291
8211 80 0.324482 0.116943 0.231773
8212 81 0.319382 0.111396 0.233335
8213 406 0.321373 0.106859 0.23916
8214 407 0.319354 0.101059 0.239483
8215 408 0.325368 0.109828 0.243664
8216 431 0.327705 0.106066 0.249187
8218 85 0.324931 0.120447 0.23593
8219 85 0.329423 0.114864 0.230772
8220 85 0.32295 0.119789 0.227384
8221 85 0.318676 0.108265 0.228928