ITEM: TIMESTEP
0
ITEM: NUMBER OF ATOMS
940
ITEM: BOX BOUNDS pp pp pp
-1.0000000000000000e+02 1.0000000000000000e+02
-1.0000000000000000e+02 1.0000000000000000e+02
-1.0000000000000000e+02 1.0000000000000000e+02
ITEM: ATOMS id type xs ys zs
13 3 0.157528 0.330059 0.024821
14 3 0.152597 0.33443 0.0148866
15 4 0.160331 0.326728 0.0192199
16 4 0.154326 0.327639 0.0137849
17 5 0.161194 0.324657 0.0199545
19 5 0.152234 0.326568 0.0140456
20 5 0.15454 0.327305 0.0114563
18 5 0.162402 0.327846 0.0189882
11 1 0.153765 0.335141 0.0217712
12 2 0.151358 0.340515 0.0253321
42 2 0.214144 0.118291 0.0414348
41 1 0.219142 0.120306 0.0457207
43 3 0.217748 0.122704 0.0521675
44 3 0.225911 0.120083 0.0438902
45 4 0.223896 0.125743 0.0539788
46 4 0.229165 0.120844 0.0501478
48 5 0.223543 0.12798 0.0532903
49 5 0.229478 0.118591 0.0508
50 5 0.231433 0.12135 0.0497366
47 5 0.223859 0.12614 0.0563043
605 720 0.411732 0.000777245 0.105529
593 719 0.422386 0.00410255 0.106088
602 722 0.421678 0.00894499 0.103551
601 722 0.427618 0.00256614 0.10492
603 722 0.422229 0.00562727 0.11134
910 88 0.760124 0.0052669 0.174643
350 722 0.279318 0.45691 0.156742
341 719 0.279364 0.454464 0.161693
349 722 0.277541 0.458217 0.165379
351 722 0.275384 0.450796 0.16109
352 720 0.29012 0.455179 0.163159
353 720 0.288087 0.447658 0.159654
342 717 0.286375 0.451227 0.163397
345 714 0.298185 0.448083 0.169119
343 716 0.28702 0.448126 0.169868
344 715 0.293155 0.447387 0.172545
849 88 0.706388 0.0183391 0.192488
848 88 0.70162 0.0253839 0.191531
842 412 0.706634 0.023486 0.191824
850 88 0.708349 0.0247205 0.185949
841 411 0.707813 0.0274903 0.197829
814 92 0.700518 0.0213027 0.211121
798 92 0.692181 0.00917158 0.210757
799 92 0.697556 0.00537761 0.212384
839 409 0.711267 0.0257134 0.20318
821 84 0.708431 0.0337587 0.213449
840 410 0.711021 0.0201292 0.205572
837 87 0.714052 0.0318889 0.207455
828 92 0.703256 0.0353348 0.211557
862 88 0.731318 0.0207173 0.195985
861 88 0.723491 0.0231052 0.196187
856 411 0.734605 0.0340203 0.199751
877 88 0.748356 0.0209105 0.201542
888 92 0.747695 0.00443599 0.192013
853 83 0.72739 0.0207717 0.199524
860 88 0.724799 0.0161637 0.19958
854 409 0.73343 0.0323009 0.20569
844 92 0.720975 0.0235467 0.212559
852 87 0.729186 0.0254574 0.207239
836 84 0.721871 0.0289184 0.209984
874 92 0.737515 0.00764756 0.20886
851 84 0.735142 0.0204861 0.212483
867 87 0.742734 0.0170442 0.210495
866 84 0.742318 0.00960575 0.206222
873 92 0.738635 0.00895399 0.202818
868 83 0.747261 0.0225733 0.207194
876 88 0.747102 0.0277267 0.20847
882 87 0.749435 0.0043598 0.203636
889 92 0.753645 0.00639471 0.192505
881 84 0.751291 0.00229307 0.195084
883 83 0.75666 0.00508746 0.20678
875 88 0.753008 0.0223028 0.207086
891 88 0.76112 0.00791378 0.203255
892 88 0.757893 0.007454 0.211226
890 88 0.75956 0.000133547 0.208808
846 88 0.711163 0.0416518 0.199248
845 88 0.7188 0.0391124 0.198538
865 88 0.733161 0.041278 0.192721
857 412 0.737003 0.0404213 0.196161
864 88 0.737022 0.0456383 0.198784
863 88 0.741609 0.0394435 0.193715
855 410 0.734042 0.0358211 0.209816
838 83 0.715081 0.0390091 0.202172
847 88 0.717315 0.0426753 0.20528
348 719 0.28541 0.449744 0.188398
354 720 0.283869 0.442195 0.180259
357 722 0.283423 0.454359 0.186184
358 722 0.281353 0.447792 0.191661
346 716 0.293733 0.445768 0.179109
347 717 0.287997 0.444227 0.183305
355 720 0.28957 0.439783 0.18621
356 722 0.289333 0.451474 0.191808
820 88 0.677315 0.0274817 0.214455
919 92 0.677856 0.00765966 0.21599
923 88 0.661473 0.0116052 0.230477
924 88 0.665031 0.00614162 0.236071
916 411 0.66429 0.00264645 0.226013
917 412 0.661756 0.00662953 0.231645
925 88 0.657772 0.00290282 0.233063
918 92 0.680748 0.00642188 0.222134
911 83 0.680238 0.00318868 0.218417
808 83 0.698461 0.0130902 0.227497
809 409 0.688862 0.0190082 0.220724
791 84 0.693856 0.00762923 0.2151
807 87 0.695606 0.0151391 0.219821
817 88 0.703934 0.0117628 0.228087
811 411 0.68807 0.0256061 0.217257
819 88 0.679164 0.0283192 0.222135
816 88 0.696916 0.0148794 0.23254
810 410 0.684145 0.0169025 0.224413
818 88 0.682373 0.0342297 0.216024
812 412 0.681112 0.029202 0.217114
815 88 0.697721 0.00819908 0.229367
831 88 0.697396 0.0353086 0.22402
806 84 0.701144 0.0201192 0.21682
822 87 0.705328 0.0278311 0.219291
813 92 0.706295 0.0184006 0.214755
824 409 0.711683 0.0275639 0.223849
826 411 0.71408 0.021865 0.226829
823 83 0.700677 0.0317133 0.224273
832 88 0.698339 0.0292275 0.227967
792 87 0.687922 0.00125782 0.215715
843 92 0.723195 0.031078 0.215287
825 410 0.714733 0.0330222 0.22566
858 92 0.733188 0.0179699 0.217445
870 410 0.743887 0.00958276 0.220737
859 92 0.736286 0.0237399 0.216681
878 88 0.74957 0.0210212 0.231333
880 88 0.748301 0.0126663 0.230939
869 409 0.74582 0.0144097 0.217748
827 412 0.717354 0.0227771 0.233387
833 88 0.722831 0.0232029 0.233853
834 88 0.719006 0.0174524 0.234214
835 88 0.715728 0.02292 0.238481
872 412 0.751486 0.0165953 0.228377
879 88 0.756681 0.0147679 0.228317
871 411 0.75024 0.0179362 0.221551
830 88 0.702956 0.0365714 0.226853
829 92 0.708756 0.0391967 0.21533
34 3 0.670182 0.259827 0.230685
31 1 0.67134 0.265543 0.226781
32 2 0.673975 0.271308 0.22946
38 5 0.663481 0.26009 0.22012
35 4 0.665664 0.259184 0.219865
37 5 0.665444 0.2585 0.21762
36 4 0.669229 0.254821 0.225752
33 3 0.669671 0.265034 0.219986
40 5 0.668277 0.252934 0.226802
39 5 0.671432 0.253956 0.225516
295 722 0.161148 0.356299 0.224119
296 722 0.153407 0.352301 0.225392
287 719 0.156182 0.356896 0.226525
298 720 0.159031 0.354264 0.236641
297 722 0.153376 0.360599 0.223683
288 717 0.15637 0.358383 0.234254
300 720 0.162432 0.376666 0.236055
299 720 0.151432 0.358265 0.23658
291 714 0.16033 0.36051 0.246751
289 716 0.159685 0.364452 0.236234
290 715 0.161578 0.364924 0.242635
292 716 0.164799 0.370596 0.244523
304 722 0.174277 0.380896 0.233556
301 720 0.165816 0.380528 0.242938
293 717 0.166353 0.37598 0.239875
294 719 0.173617 0.376257 0.236571
302 722 0.177752 0.37633 0.240265
303 722 0.174786 0.372145 0.233099
282 720 0.342965 0.101584 0.258154
283 720 0.346037 0.100474 0.250015
275 717 0.34722 0.102739 0.254854
286 722 0.353183 0.0939127 0.257772
276 719 0.353788 0.0994135 0.25779
285 722 0.354977 0.100685 0.262995
284 722 0.358465 0.100498 0.255026
270 717 0.341828 0.117946 0.268366
281 720 0.337622 0.120893 0.266493
271 716 0.343047 0.112795 0.263489
272 715 0.34448 0.114508 0.25726
273 714 0.343524 0.120141 0.255121
274 716 0.347348 0.109806 0.253228
279 722 0.336146 0.111905 0.275871
269 719 0.340447 0.115293 0.275624
278 722 0.338978 0.119277 0.279027
280 720 0.345998 0.121473 0.268311
277 722 0.344795 0.113006 0.278146
262 720 0.75997 0.425113 0.27804
255 714 0.770286 0.423667 0.271821
259 722 0.749808 0.433226 0.277304
256 716 0.770072 0.430326 0.262818
267 722 0.757355 0.434966 0.256942
268 722 0.761125 0.441246 0.252482
258 719 0.762053 0.436259 0.254608
264 720 0.767443 0.440483 0.263395
266 722 0.762614 0.432802 0.250345
265 720 0.772447 0.438403 0.25684
257 717 0.768087 0.436504 0.259642
251 719 0.754169 0.433941 0.28064
252 717 0.760828 0.430487 0.278362
253 716 0.763532 0.432554 0.272028
260 722 0.75269 0.432228 0.285599
263 720 0.764805 0.430825 0.282075
254 715 0.768079 0.428673 0.269052
261 722 0.754669 0.439252 0.281539
367 722 0.44988 0.0682588 0.339689
368 722 0.442021 0.0666036 0.342719
359 719 0.444686 0.0702423 0.339604
369 722 0.442371 0.0694954 0.334612
375 722 0.464136 0.0869871 0.339477
366 719 0.463484 0.0911419 0.336011
371 720 0.438535 0.0790408 0.342292
370 720 0.445144 0.0778811 0.347681
360 717 0.443803 0.0776026 0.34239
361 716 0.447308 0.0827673 0.338933
363 714 0.444064 0.0904087 0.34645
362 715 0.447272 0.088975 0.341467
364 716 0.450824 0.093599 0.338303
372 720 0.45451 0.0875306 0.330477
373 720 0.455855 0.0959219 0.329759
365 717 0.456044 0.0918911 0.333493
376 722 0.466962 0.0903023 0.331694
374 722 0.465351 0.0953825 0.338955
335 720 0.42814 0.301389 0.392286
332 722 0.422124 0.312448 0.390764
333 722 0.416177 0.306981 0.392836
337 720 0.421684 0.285337 0.413629
324 717 0.426318 0.3041 0.396651
323 719 0.420637 0.309231 0.394904
331 722 0.418981 0.312537 0.399017
325 716 0.424872 0.299348 0.401845
329 717 0.421832 0.290651 0.412134
330 719 0.418953 0.29481 0.418155
336 720 0.418376 0.290659 0.407844
338 722 0.421862 0.294574 0.422827
339 722 0.418375 0.30008 0.417052
340 722 0.413874 0.293099 0.419417
326 715 0.429951 0.296122 0.40473
328 716 0.428581 0.292094 0.409984
327 714 0.435731 0.296848 0.402788
334 720 0.430741 0.306873 0.398224
2 2 0.0821603 0.371804 0.401725
1 1 0.0873886 0.376217 0.402456
4 3 0.0924829 0.376759 0.397657
3 3 0.0879296 0.380434 0.408043
6 4 0.0974601 0.38038 0.401183
7 5 0.093552 0.386317 0.407786
5 4 0.0927976 0.385124 0.405894
8 5 0.0914413 0.386834 0.404986
9 5 0.0987725 0.378631 0.402085
10 5 0.0990451 0.381161 0.399617
321 722 0.966313 0.0930959 0.49457
312 719 0.968877 0.0964485 0.491035
322 722 0.965686 0.0965097 0.486455
320 722 0.97345 0.0937097 0.489578
318 720 0.965646 0.106585 0.494618
311 717 0.970338 0.10382 0.493723
319 720 0.972649 0.106696 0.489593
310 716 0.974857 0.104687 0.499384
24 3 0.869492 0.227845 0.487931
22 2 0.862069 0.231537 0.479049
27 5 0.867659 0.239044 0.49607
25 4 0.868307 0.237654 0.494275
21 1 0.864842 0.232389 0.485297
23 3 0.863173 0.237841 0.48938
28 5 0.869917 0.239115 0.493333
30 5 0.871456 0.228607 0.495797
29 5 0.867939 0.228154 0.495691
26 4 0.869572 0.229621 0.4948
313 722 0.955276 0.0982176 0.513347
315 722 0.952592 0.106612 0.512927
306 717 0.963758 0.105833 0.513753
314 722 0.955011 0.103661 0.520438
305 719 0.956378 0.10338 0.515103
316 720 0.967103 0.102667 0.516653
307 716 0.966044 0.105589 0.506927
309 714 0.976724 0.106403 0.510236
308 715 0.972672 0.105543 0.505729
317 720 0.964818 0.11079 0.515741
444 720 0.223164 0.392645 0.51581
446 722 0.213306 0.404657 0.512384
445 720 0.215538 0.393755 0.519484
437 717 0.219759 0.39667 0.517417
433 716 0.23335 0.398715 0.518719
436 716 0.222722 0.400241 0.522945
441 722 0.244729 0.394814 0.510198
431 719 0.244175 0.399905 0.511902
439 722 0.242273 0.402879 0.507676
448 722 0.214816 0.397409 0.507507
434 715 0.229395 0.400937 0.523632
438 719 0.217036 0.400755 0.511278
447 722 0.220975 0.40329 0.508634
435 714 0.23178 0.403643 0.52858
440 722 0.249396 0.401287 0.512442
443 720 0.242668 0.397996 0.522791
432 717 0.240283 0.400638 0.518667
442 720 0.240549 0.405836 0.520291
404 722 0.455132 0.0573403 0.583648
395 719 0.4598 0.0593464 0.585755
403 722 0.460992 0.0563236 0.590277
405 722 0.463377 0.0579438 0.581885
406 720 0.455353 0.0680661 0.590558
407 720 0.457792 0.06985 0.582481
396 717 0.459336 0.0671346 0.586953
397 716 0.465297 0.0702608 0.589526
411 722 0.476887 0.0667868 0.601524
412 722 0.484763 0.0696279 0.599349
402 719 0.479655 0.0713838 0.600503
399 714 0.459458 0.0793262 0.592396
408 720 0.477477 0.0732681 0.589757
398 715 0.46479 0.0762704 0.592358
400 716 0.470353 0.0788656 0.595378
401 717 0.476952 0.075863 0.594608
409 720 0.480421 0.0801244 0.593958
410 722 0.479967 0.0740649 0.605293
455 717 0.377351 0.311953 0.638706
456 719 0.37982 0.309776 0.631421
464 722 0.384733 0.31188 0.630023
466 722 0.376378 0.311521 0.62738
463 720 0.376774 0.317447 0.63861
462 720 0.372214 0.310212 0.639688
465 722 0.380421 0.304366 0.630675
478 720 0.759694 0.208272 0.677847
386 722 0.607229 0.241843 0.674711
484 722 0.737932 0.23029 0.677986
483 722 0.740863 0.223092 0.67386
474 719 0.742321 0.228233 0.67521
482 722 0.742365 0.231014 0.670408
471 714 0.763342 0.219136 0.674458
470 715 0.758164 0.220688 0.677367
472 716 0.755403 0.226782 0.676312
458 722 0.369119 0.285495 0.652186
459 722 0.364376 0.291147 0.648259
461 720 0.372789 0.297105 0.656377
451 716 0.375283 0.301071 0.647192
460 720 0.379188 0.293202 0.652369
450 717 0.37427 0.295344 0.65144
457 722 0.371093 0.287614 0.64371
449 719 0.369586 0.289672 0.648649
453 714 0.38455 0.303915 0.652914
452 715 0.380608 0.305094 0.648372
454 716 0.381498 0.310562 0.644551
423 722 0.938224 0.479148 0.671945
413 719 0.942417 0.476454 0.673989
421 722 0.946785 0.477455 0.670818
422 722 0.940937 0.471413 0.672782
475 722 0.74882 0.20339 0.682796
476 722 0.755956 0.199675 0.686582
468 717 0.758095 0.210001 0.682755
479 720 0.76281 0.210538 0.685435
477 722 0.751753 0.205547 0.690895
467 719 0.753366 0.20447 0.68581
382 716 0.606887 0.249273 0.70245
390 720 0.602787 0.239703 0.702539
387 722 0.603764 0.236439 0.680373
377 719 0.604703 0.241784 0.679567
379 716 0.606542 0.245051 0.691869
385 722 0.599893 0.244339 0.678589
393 722 0.592468 0.247664 0.699739
394 722 0.591171 0.242832 0.70694
383 717 0.601893 0.244635 0.704811
384 719 0.594324 0.246816 0.704762
391 720 0.603196 0.243693 0.710077
389 720 0.614007 0.242464 0.685452
380 715 0.609933 0.248687 0.696404
378 717 0.60919 0.245032 0.685158
481 720 0.749858 0.234273 0.680491
473 717 0.749115 0.228907 0.679411
480 720 0.748556 0.226705 0.684433
469 716 0.755218 0.216555 0.681796
392 722 0.593089 0.251482 0.707474
381 714 0.61511 0.251745 0.695025
388 720 0.610414 0.250182 0.683774
414 717 0.943377 0.477347 0.681696
415 716 0.945236 0.483899 0.683978
416 715 0.947749 0.484651 0.690138
417 714 0.947168 0.480228 0.694326
418 716 0.951018 0.490363 0.691584
424 720 0.947137 0.473831 0.683499
425 720 0.938949 0.476025 0.684577
429 722 0.957818 0.493392 0.678866
426 720 0.946191 0.495942 0.684293
419 717 0.950902 0.49603 0.687156
420 719 0.957052 0.497351 0.682421
428 722 0.961963 0.497936 0.684837
490 716 0.103562 0.418321 0.766112
488 715 0.101746 0.417269 0.772582
489 714 0.0959799 0.415672 0.773976
486 717 0.104148 0.418731 0.78416
496 720 0.0993488 0.421328 0.784186
487 716 0.106361 0.418125 0.777309
499 720 0.111063 0.417064 0.75923
498 720 0.11381 0.417166 0.767339
502 722 0.117523 0.427595 0.760895
492 719 0.112285 0.427275 0.762561
491 717 0.110317 0.419782 0.76398
501 722 0.112002 0.430278 0.767022
500 722 0.109267 0.430053 0.758844
497 720 0.102858 0.413683 0.785763
494 722 0.106965 0.422546 0.794265
495 722 0.113591 0.41953 0.790148
485 719 0.109018 0.422296 0.789219
493 722 0.110396 0.4275 0.788014
64 3 0.7358 0.0790287 0.869872
70 5 0.735707 0.0819334 0.877476
69 5 0.733313 0.0838229 0.875664
66 4 0.735617 0.0832851 0.875544
63 3 0.739492 0.0898861 0.86664
67 5 0.741498 0.0909215 0.874462
62 2 0.736385 0.0818565 0.858067
61 1 0.737206 0.083548 0.864691
65 4 0.741221 0.0888144 0.873436
68 5 0.743518 0.0882643 0.873262
519 722 0.797511 0.464133 0.887486
520 722 0.790284 0.466224 0.883246
516 720 0.79118 0.474487 0.892758
517 720 0.791867 0.478417 0.885216
518 722 0.798138 0.468348 0.879907
508 716 0.800745 0.478241 0.890469
509 717 0.794633 0.474929 0.888487
510 719 0.795269 0.468128 0.884596
54 3 0.568616 0.0303971 0.899414
60 5 0.56697 0.0354694 0.893256
51 1 0.566443 0.0322622 0.905819
52 2 0.568423 0.0288595 0.91148
58 5 0.558099 0.0371857 0.899359
55 4 0.560092 0.0384818 0.899395
57 5 0.559076 0.0406021 0.899155
56 4 0.566855 0.0360752 0.895534
59 5 0.568857 0.0373458 0.89561
53 3 0.562126 0.0377788 0.906153
511 722 0.802294 0.461081 0.908777
506 715 0.803318 0.477712 0.896703
507 714 0.808236 0.481007 0.89833
503 719 0.801265 0.465914 0.911283
513 722 0.796048 0.465836 0.912709
505 716 0.800429 0.473426 0.900934
515 720 0.802792 0.476937 0.910332
514 720 0.80881 0.472223 0.906628
504 717 0.803415 0.472389 0.907393
512 722 0.80365 0.46574 0.916188
77 5 0.196714 0.412806 0.943257
73 3 0.193308 0.416011 0.936591
71 1 0.186478 0.41761 0.936888
74 3 0.183502 0.417342 0.943241
80 5 0.188429 0.416513 0.949671
72 2 0.182902 0.41934 0.931269
79 5 0.189477 0.419448 0.947985
76 4 0.189159 0.417153 0.947518
75 4 0.194385 0.41294 0.942895
78 5 0.194034 0.410661 0.942379
538 722 0.111361 0.641437 0.0187253
522 717 0.0974206 0.66288 0.00684409
523 716 0.102127 0.659876 0.0113793
524 715 0.101557 0.661184 0.0178848
525 714 0.0978074 0.665595 0.0199058
532 720 0.0925678 0.662935 0.00932925
533 720 0.0986349 0.668182 0.00652502
526 716 0.105157 0.65749 0.0222452
536 722 0.105283 0.642925 0.0249751
537 722 0.103421 0.644058 0.016558
527 717 0.109799 0.652327 0.0201895
534 720 0.112157 0.653719 0.0154068
528 719 0.107305 0.64486 0.02021
535 720 0.114116 0.652584 0.0236352
93 3 0.924922 0.677159 0.0292079
94 3 0.935372 0.676925 0.034925
91 1 0.930051 0.673337 0.0320893
92 2 0.929876 0.666461 0.0321326
95 4 0.927938 0.683559 0.0287155
97 5 0.926234 0.685139 0.0282892
96 4 0.932691 0.683479 0.0353328
98 5 0.928843 0.683494 0.0265214
99 5 0.931783 0.683492 0.0375269
100 5 0.934474 0.684972 0.0357378
594 717 0.416681 0.998961 0.104119
597 714 0.409566 0.988238 0.0994416
595 716 0.417252 0.99225 0.106577
596 715 0.414205 0.987293 0.103363
598 716 0.416494 0.980962 0.104499
604 720 0.416558 0.998656 0.0986719
608 722 0.429106 0.97386 0.104651
609 722 0.431363 0.981883 0.106214
657 722 0.104492 0.795956 0.119006
656 722 0.10682 0.796606 0.110847
647 719 0.103521 0.798996 0.114553
650 715 0.102162 0.816794 0.120725
654 719 0.0864177 0.817604 0.129181
649 716 0.101777 0.810127 0.120636
660 720 0.095604 0.811668 0.130523
653 717 0.0942634 0.816958 0.130117
664 722 0.0834636 0.815009 0.133094
663 722 0.0846125 0.815923 0.124323
655 722 0.0982925 0.798209 0.112864
648 717 0.105352 0.806548 0.115553
658 720 0.104847 0.809264 0.110841
661 720 0.0956214 0.818905 0.135057
652 716 0.0987779 0.82016 0.125476
651 714 0.105317 0.819904 0.116544
659 720 0.110683 0.80713 0.116573
662 722 0.084556 0.822705 0.12939
599 717 0.420878 0.979202 0.109943
600 719 0.428494 0.977776 0.108379
606 720 0.420235 0.98269 0.114162
607 720 0.418801 0.974475 0.111925
610 722 0.431251 0.976051 0.112881
584 722 0.907418 0.599788 0.178032
84 3 0.812841 0.653315 0.168984
88 5 0.816228 0.66504 0.171703
86 4 0.817658 0.655728 0.1736
89 5 0.817244 0.654354 0.175482
81 1 0.807408 0.657599 0.170165
83 3 0.808782 0.663413 0.173845
85 4 0.815867 0.663678 0.173604
87 5 0.816599 0.665233 0.175225
90 5 0.819755 0.654809 0.173019
82 2 0.801088 0.656176 0.16784
934 92 0.742342 0.9821 0.177258
933 92 0.751439 0.980715 0.177254
902 412 0.760931 0.999756 0.173911
909 88 0.759114 0.996031 0.170194
908 88 0.76607 0.999044 0.172856
590 722 0.920474 0.569957 0.193631
579 714 0.898493 0.580371 0.189037
577 716 0.907339 0.587063 0.189878
578 715 0.904126 0.581363 0.191217
586 720 0.903037 0.588234 0.180632
580 716 0.907275 0.57668 0.194916
576 717 0.904846 0.591388 0.184696
591 722 0.921115 0.577746 0.190005
587 720 0.900267 0.593595 0.18665
582 719 0.920193 0.575346 0.194724
583 722 0.914359 0.594734 0.179381
575 719 0.909809 0.596694 0.181775
581 717 0.913598 0.577912 0.198146
588 720 0.913954 0.583268 0.199409
592 722 0.924604 0.576619 0.197758
585 722 0.911302 0.600503 0.185285
589 720 0.913292 0.575592 0.203157
549 722 0.44734 0.783133 0.201048
540 717 0.442462 0.782679 0.211094
551 720 0.441696 0.777255 0.21116
548 722 0.452772 0.781436 0.207264
539 719 0.448322 0.784471 0.206246
544 716 0.425498 0.788501 0.213725
546 719 0.424886 0.801148 0.210006
554 722 0.421146 0.802976 0.21348
556 722 0.424251 0.8045 0.20563
553 720 0.419515 0.79217 0.206447
545 717 0.424463 0.793356 0.208456
552 720 0.427888 0.792226 0.204343
547 722 0.449874 0.789757 0.206562
541 716 0.436126 0.78587 0.209969
555 722 0.429454 0.802751 0.212512
922 88 0.669086 0.994304 0.209895
920 88 0.672455 0.985923 0.214007
802 88 0.685396 0.991358 0.208917
800 88 0.692056 0.992727 0.207239
793 83 0.687617 0.995919 0.209447
801 88 0.685659 0.998053 0.205045
932 412 0.726706 0.979912 0.193566
938 88 0.724974 0.98481 0.195823
931 411 0.73429 0.9789 0.193889
927 85 0.745879 0.980362 0.187872
903 92 0.742921 0.991446 0.19101
926 83 0.746716 0.982556 0.180306
928 83 0.749379 0.973974 0.190404
929 409 0.737851 0.9787 0.188722
936 88 0.746957 0.970003 0.18886
896 84 0.747819 0.988536 0.191583
904 92 0.745534 0.987137 0.195861
930 410 0.735628 0.976203 0.184009
940 88 0.723089 0.978953 0.189694
886 411 0.744223 0.995358 0.212935
895 88 0.738802 0.986845 0.210872
884 409 0.747798 0.996708 0.207527
885 410 0.749502 0.99221 0.204204
939 88 0.72545 0.978569 0.198515
900 410 0.748101 0.995931 0.181448
937 88 0.753661 0.972107 0.187447
935 88 0.751249 0.972236 0.195721
905 88 0.761499 0.985136 0.192065
901 411 0.759633 0.9975 0.181345
897 87 0.753795 0.994614 0.191513
899 409 0.753393 0.995991 0.184235
898 83 0.760774 0.990448 0.194139
906 88 0.765586 0.993194 0.195568
907 88 0.760932 0.988851 0.198926
625 720 0.0230103 0.767049 0.237245
626 722 0.0174884 0.759187 0.246098
628 722 0.0118989 0.761998 0.239951
618 719 0.0151601 0.763716 0.244054
627 722 0.0118148 0.76544 0.247966
616 716 0.0250611 0.771737 0.24617
617 717 0.0201764 0.769203 0.24148
624 720 0.0175141 0.77336 0.23902
613 716 0.0184064 0.780808 0.248836
614 715 0.0242447 0.777588 0.249492
543 714 0.432246 0.78224 0.219832
550 720 0.443946 0.783663 0.216279
542 715 0.431382 0.785344 0.214674
621 722 0.00739636 0.790599 0.249077
913 83 0.670764 0.992043 0.215146
912 85 0.674634 0.99681 0.220082
915 410 0.673009 0.996964 0.231575
921 88 0.665721 0.99019 0.217099
914 409 0.670392 0.99858 0.226225
794 409 0.691114 0.995823 0.220616
796 411 0.686915 0.990904 0.22329
797 412 0.688052 0.98488 0.226482
805 88 0.687523 0.98596 0.231836
803 88 0.685091 0.981772 0.223716
804 88 0.693036 0.98372 0.226096
795 410 0.697146 0.996803 0.221941
887 412 0.741649 0.989267 0.215007
893 88 0.736407 0.989765 0.218221
894 88 0.744383 0.985073 0.217674
615 714 0.028761 0.779796 0.25302
622 720 0.0193101 0.785698 0.257749
619 722 0.00628725 0.785298 0.255955
104 3 0.203568 0.780287 0.276661
102 2 0.196441 0.771488 0.281066
106 4 0.203265 0.783688 0.270443
110 5 0.205145 0.785107 0.270299
109 5 0.201642 0.785379 0.270893
105 4 0.201719 0.777467 0.265422
108 5 0.203326 0.775756 0.265005
107 5 0.200925 0.777681 0.263209
101 1 0.198886 0.775148 0.275767
103 3 0.196828 0.773958 0.269174
611 719 0.00975564 0.788963 0.253663
612 717 0.0172353 0.786682 0.252805
620 722 0.00947187 0.79354 0.256632
623 720 0.0204712 0.790664 0.250973
640 720 0.923975 0.528443 0.405535
641 720 0.930293 0.529585 0.399983
630 717 0.929058 0.530389 0.405228
637 722 0.932245 0.52644 0.415506
629 719 0.933574 0.526218 0.410121
638 722 0.933626 0.520955 0.408651
639 722 0.938843 0.5274 0.409776
633 714 0.91973 0.538303 0.399768
635 717 0.927885 0.550969 0.409365
636 719 0.926394 0.551795 0.417036
644 722 0.921701 0.554371 0.418219
645 722 0.926198 0.54714 0.419806
634 716 0.923019 0.547498 0.405293
632 715 0.923686 0.540955 0.403641
643 720 0.928401 0.556039 0.4072
646 722 0.930383 0.554702 0.419485
631 716 0.928701 0.537477 0.406387
642 720 0.932932 0.548892 0.408543
114 3 0.0866884 0.786279 0.427995
126 4 0.981136 0.641477 0.453028
129 5 0.982837 0.639845 0.452659
130 5 0.97929 0.640015 0.452926
121 1 0.986515 0.648678 0.459322
127 5 0.981712 0.649271 0.447299
128 5 0.97976 0.65051 0.450008
124 3 0.98221 0.643166 0.459831
125 4 0.981438 0.648862 0.449604
123 3 0.987017 0.651636 0.452989
116 4 0.0808911 0.785422 0.431986
115 4 0.0811094 0.777376 0.433226
118 5 0.0807608 0.775818 0.431453
117 5 0.0798797 0.776229 0.434884
112 2 0.0977186 0.781355 0.429187
113 3 0.0880061 0.776469 0.434606
111 1 0.0909788 0.781367 0.43056
119 5 0.0812829 0.786982 0.43375
120 5 0.0791184 0.786581 0.430946
122 2 0.990043 0.651059 0.46473
771 722 0.101018 0.528423 0.5088
766 720 0.102575 0.513432 0.527491
762 719 0.103405 0.526262 0.504434
772 722 0.106289 0.530437 0.502297
759 714 0.103601 0.507239 0.517272
758 715 0.105422 0.512752 0.515279
760 716 0.105303 0.514196 0.508689
763 722 0.103304 0.526045 0.5307
770 722 0.0993429 0.525159 0.500855
769 720 0.110625 0.518827 0.501248
761 717 0.108215 0.520235 0.505989
755 719 0.107462 0.522415 0.5313
756 717 0.107208 0.516157 0.526548
757 716 0.107346 0.517571 0.519477
765 722 0.112082 0.525243 0.530903
768 720 0.11259 0.521758 0.508964
767 720 0.11113 0.512513 0.527641
764 722 0.107574 0.520895 0.536565
192 2 0.688832 0.799884 0.567208
231 1 0.189941 0.871015 0.566469
233 3 0.193767 0.86849 0.561152
234 3 0.183807 0.873967 0.564751
235 4 0.190642 0.871479 0.555529
236 4 0.182904 0.871726 0.558081
238 5 0.191927 0.873443 0.555259
239 5 0.181636 0.869759 0.558409
240 5 0.181191 0.87302 0.557098
237 5 0.191396 0.870363 0.553591
195 4 0.68336 0.804809 0.583137
197 5 0.681452 0.805706 0.584202
196 4 0.686342 0.797327 0.584388
199 5 0.684995 0.795397 0.584172
200 5 0.687532 0.796645 0.58631
198 5 0.68472 0.806736 0.583295
193 3 0.682071 0.804545 0.576166
191 1 0.687228 0.800364 0.573881
194 3 0.690654 0.796696 0.57879
742 716 0.962857 0.80341 0.577007
743 717 0.962458 0.796281 0.578313
750 720 0.957256 0.794475 0.578013
753 722 0.964059 0.795327 0.589553
740 715 0.957796 0.807692 0.57835
741 714 0.957951 0.813437 0.576189
746 722 0.9391 0.811569 0.591093
749 720 0.944548 0.811036 0.579472
748 720 0.949929 0.814825 0.585034
737 719 0.943132 0.807963 0.590128
738 717 0.947544 0.810049 0.583927
739 716 0.952861 0.805488 0.582214
745 722 0.945881 0.807234 0.59489
747 722 0.940291 0.803403 0.589361
744 719 0.966061 0.793536 0.584785
751 720 0.964725 0.7938 0.573944
754 722 0.965542 0.788029 0.585009
752 722 0.971486 0.794577 0.584918
232 2 0.192081 0.870617 0.572998
154 3 0.590575 0.5199 0.637628
156 4 0.584589 0.523706 0.637645
159 5 0.585165 0.525517 0.636214
160 5 0.583054 0.522654 0.636196
711 722 0.637339 0.656937 0.633408
710 722 0.630645 0.65808 0.638265
709 722 0.638388 0.656729 0.642179
701 719 0.63593 0.659401 0.638018
702 717 0.636955 0.667178 0.637906
712 720 0.634967 0.669287 0.642521
713 720 0.633906 0.669639 0.634118
718 722 0.664811 0.66672 0.641219
703 716 0.643673 0.669634 0.637174
704 715 0.644978 0.675977 0.638852
706 716 0.651424 0.67793 0.639203
707 717 0.656906 0.673559 0.637461
714 720 0.655373 0.670185 0.63339
715 720 0.660693 0.676653 0.63489
705 714 0.64044 0.679872 0.640199
182 2 0.0443438 0.76078 0.637443
181 1 0.0511739 0.761469 0.63792
186 4 0.0615997 0.758595 0.639781
189 5 0.0614772 0.757957 0.642057
185 4 0.0609748 0.766384 0.637465
187 5 0.0622896 0.768159 0.638303
188 5 0.0610393 0.767018 0.635187
190 5 0.0633401 0.75713 0.639155
184 3 0.0555109 0.755993 0.637234
183 3 0.0542 0.767689 0.639114
158 5 0.582978 0.52292 0.647092
151 1 0.593958 0.522448 0.64322
153 3 0.590125 0.526288 0.647668
155 4 0.583504 0.524736 0.645653
157 5 0.582051 0.526322 0.646631
152 2 0.600651 0.521256 0.644275
717 722 0.657435 0.66607 0.645569
716 722 0.662666 0.672773 0.647333
708 719 0.660632 0.669706 0.64322
161 1 0.744762 0.819068 0.666934
162 2 0.739142 0.820199 0.663129
163 3 0.744603 0.819323 0.673949
164 3 0.750978 0.817593 0.664023
165 4 0.7515 0.819648 0.675574
166 4 0.754664 0.815139 0.669565
167 5 0.751733 0.819194 0.677879
169 5 0.754264 0.812815 0.66941
170 5 0.756946 0.815087 0.668964
168 5 0.75185 0.821982 0.675697
148 5 0.673753 0.885713 0.65797
145 4 0.67441 0.887613 0.656726
147 5 0.676743 0.887301 0.656923
141 1 0.666017 0.88844 0.649709
142 2 0.661644 0.886586 0.644728
143 3 0.672485 0.885752 0.650157
146 4 0.670564 0.894763 0.657438
149 5 0.671184 0.896646 0.656151
150 5 0.670187 0.895905 0.65947
144 3 0.664258 0.89313 0.654628
430 722 0.956223 0.501808 0.679296
427 720 0.950157 0.500452 0.69039
787 720 0.944177 0.636106 0.746805
786 720 0.95066 0.640915 0.749697
172 2 0.688078 0.674333 0.749163
790 722 0.939987 0.647767 0.74851
171 1 0.691202 0.67991 0.746615
173 3 0.696657 0.682913 0.749856
174 3 0.689114 0.682914 0.740623
175 4 0.697044 0.689197 0.746587
176 4 0.69461 0.687129 0.739087
177 5 0.699128 0.690173 0.747117
178 5 0.695718 0.690549 0.747999
179 5 0.69591 0.685728 0.737698
180 5 0.693924 0.688649 0.737416
778 716 0.947137 0.633777 0.756357
777 714 0.953545 0.629479 0.764489
776 715 0.952394 0.634082 0.760613
779 717 0.945839 0.638803 0.751337
775 716 0.956196 0.639572 0.760589
788 722 0.935393 0.642658 0.7541
774 717 0.96061 0.640771 0.76617
784 720 0.958108 0.639032 0.770694
785 720 0.964716 0.637237 0.765607
132 2 0.293397 0.663568 0.782749
780 719 0.940475 0.644354 0.752794
773 719 0.96308 0.648137 0.767292
781 722 0.959156 0.651888 0.768217
789 722 0.941949 0.647509 0.756874
783 722 0.966277 0.650006 0.763354
782 722 0.966466 0.648542 0.771523
687 714 0.556249 0.796496 0.77085
694 720 0.558647 0.789109 0.780095
684 717 0.56292 0.792154 0.781595
695 720 0.566824 0.790994 0.777955
685 716 0.560916 0.799021 0.780701
689 717 0.558557 0.81244 0.778441
690 719 0.554295 0.815177 0.784484
698 722 0.549312 0.817086 0.783046
697 720 0.559397 0.816599 0.774927
688 716 0.555692 0.807053 0.774512
696 720 0.563714 0.811244 0.779987
686 715 0.557667 0.800638 0.77515
680 722 0.00461668 0.970464 0.765907
681 722 0.00680567 0.976514 0.77179
672 719 0.00417697 0.971812 0.77123
682 722 0.0072873 0.96821 0.773992
673 722 0.00324337 0.995187 0.782937
679 720 0.994947 0.966676 0.773669
678 720 0.99682 0.97253 0.779572
671 717 0.99686 0.971834 0.774107
665 719 0.998268 0.994589 0.785322
666 717 0.992702 0.991282 0.780874
667 716 0.994049 0.984623 0.778494
668 715 0.990433 0.982267 0.7734
669 714 0.985899 0.985556 0.770882
670 716 0.992024 0.976171 0.770933
676 720 0.991929 0.994398 0.776468
677 720 0.987791 0.99131 0.783247
135 4 0.279923 0.667989 0.793086
137 5 0.277745 0.668892 0.792941
139 5 0.280708 0.658504 0.794411
136 4 0.281699 0.660388 0.795437
140 5 0.281605 0.659599 0.797659
138 5 0.280958 0.669872 0.794071
133 3 0.282768 0.668037 0.786588
134 3 0.288409 0.659872 0.793195
131 1 0.288323 0.663819 0.78739
692 722 0.566592 0.784954 0.789292
691 722 0.561066 0.79093 0.792818
683 719 0.564967 0.790181 0.788953
693 722 0.569374 0.792771 0.79078
699 722 0.553446 0.811636 0.788556
700 722 0.556982 0.819385 0.786842
675 722 0.999082 0.992046 0.790038
674 722 0.996671 0.999518 0.787071
215 4 0.530874 0.802351 0.848942
218 5 0.528996 0.801006 0.849462
217 5 0.529714 0.804046 0.84778
213 3 0.53264 0.804878 0.85533
220 5 0.538248 0.79757 0.844832
214 3 0.539953 0.795868 0.852608
216 4 0.537975 0.799099 0.846612
219 5 0.53987 0.800439 0.846146