ITEM: TIMESTEP
0
ITEM: NUMBER OF ATOMS
940
ITEM: BOX BOUNDS pp pp pp
-1.0000000000000000e+02 1.0000000000000000e+02
-1.0000000000000000e+02 1.0000000000000000e+02
-1.0000000000000000e+02 1.0000000000000000e+02
ITEM: ATOMS c_delta_s
nan
nan
nan
nan
nan
nan
nan
nan
nan
nan
nan
nan
nan
nan
nan
nan
nan
nan
nan
nan
-31.7978
-31.6026
-30.7344
-31.7163
-31.3656
-59.6102
-30.5061
-31.3739
-31.3739
-31.1987
-31.4107
-31.5276
-31.4107
-29.988
-29.4587
-29.4587
nan
-69.0634
-71.502
-64.3903
-75.8462
nan
nan
nan
nan
nan
nan
nan
nan
-77.9577
-70.6897
-72.4222
-75.5336
-75.7225
-73.6074
-78.9236
-73.9444
nan
-75.5638
-76.0062
-76.1907
-74.8268
-73.9522
-75.7689
-77.5023
-71.3518
-70.3733
-73.7289
-75.1793
-76.2556
-76.3869
-71.8759
-76.2994
-71.1501
-72.799
-68.2257
-66.4069
-64.586
-67.4695
-59.8811
-65.8543
-73.3947
-69.9458
-74.2304
-31.2497
-30.026
-30.6987
-30.984
-30.5329
-31.0735
-31.2497
-31.2497
nan
nan
nan
nan
nan
nan
-41.3984
nan
nan
nan
nan
nan
nan
nan
nan
nan
nan
nan
nan
nan
nan
nan
nan
nan
nan
nan
nan
nan
nan
nan
nan
nan
-72.1334
-65.696
-73.6335
-61.565
-59.5006
-70.684
nan
-70.8013
-71.1678
nan
-64.2098
-60.043
-68.9163
nan
nan
nan
nan
nan
nan
nan
nan
nan
nan
nan
nan
-31.1984
-30.6592
-31.3849
-31.4381
-31.3011
-31.0665
-30.1031
-31.5434
-30.0735
-29.5452
-29.5452
-31.0302
-31.0306
-31.379
-31.2787
-31.5899
-31.379
-30.7548
-30.2178
-31.4278
-31.3569
-31.2184
-31.6652
-30.856
-31.4278
-31.1752
-31.5972
-29.6403
-29.6403
-30.1713
-31.151
-31.3643
-31.4919
-30.6681
-31.5321
-31.3079
-31.697
-30.3095
-31.4871
-31.3045
-31.0278
-31.3099
-31.8443
-30.3474
-31.6147
-31.6147
-31.5217
-31.6566
-31.3385
-29.779
-30.8425
-31.7107
-29.779
-31.4842
-31.22
-30.6425
-31.583
-31.3843
-31.1678
-31.7815
-31.6366
-31.4777
-31.1179
-29.6253
-30.157
-29.6253
-31.1578
-30.1976
-31.5717
-31.4866
-31.1972
-31.5717
-31.6747
-30.8032
-31.4465
-31.5885
-31.2946
-31.614
-31.441
-29.7446
-31.4878
-31.814
-30.3111
-31.5885
-30.993
-31.2786
-29.7446
-31.2667
-30.2738
-31.6537
nan
nan
nan
nan
nan
nan
nan
nan
nan
nan
-30.8324
-31.1644
-30.8451
-31.1644
-29.8901
-31.0107
-31.1644
-30.3848
nan
nan
nan
nan
nan
nan
nan
nan
nan
nan
-31.2028
-31.1252
-31.2533
-30.4311
-31.4108
-31.2533
-29.3337
-29.8554
-29.3337
-31.4492
-30.5155
-31.7255
-31.7255
-31.6253
-29.9343
-31.0434
-31.6271
-31.8806
-31.8806
-31.4482
-29.9343
-31.9517
-31.225
-30.477
-30.967
-31.9089
-31.5307
-31.9029
-30.7301
-31.5441
-31.5441
-31.3682
-31.5797
-31.6723
-31.2101
-29.6655
-30.9103
-31.1867
-31.6707
-30.1931
-30.236
-29.6655
-30.7478
-31.332
-31.4575
-31.4575
-30.9336
-31.0903
-31.0903
-30.7269
-31.0903
-29.7487
-30.6559
-31.0376
-30.4716
-30.6739
-30.6115
-31.0279
-31.0279
-29.6736
-29.1612
-30.5838
-30.3192
-31.0307
-31.2905
-29.2059
-31.0827
-31.0827
-30.8099
-31.2315
-29.7212
-29.2059
-30.628
-31.6536
-31.9188
-31.9188
-30.9764
-30.7635
-30.2833
-31.0376
-31.2346
-30.9713
-31.1794
-30.9113
-29.9556
-31.0628
-31.237
-29.4062
-31.0262
-30.5636
-31.0004
-31.1248
-31.3979
-31.1418
-31.3631
-29.4062
-30.9608
-31.0279
-30.8893
-29.7052
-29.1612
-31.0004
-30.5057
-31.3103
-31.5743
-29.9616
-29.9616
-30.5063
-31.0723
-31.945
-31.9495
-31.2491
-30.5448
-31.6384
-31.9571
-31.7235
-30.8899
-29.7849
-30.3227
-31.3687
-31.7422
-29.7849
-31.5533
-30.3628
-31.2838
-31.7778
-31.454
-31.0731
-31.5533
-31.7536
-30.8268
-31.4533
-31.7268
-31.7268
nan
nan
nan
nan
nan
nan
nan
nan
nan
nan
-30.9534
-31.2511
-30.2761
-31.5551
-31.5551
-31.2311
-31.4549
-31.7797
nan
nan
nan
nan
nan
nan
nan
nan
nan
nan
-31.3965
-29.7119
-30.2394
-31.5711
-31.4114
-29.7119
-31.6433
-31.6139
-31.2565
-30.7694
nan
nan
nan
nan
nan
nan
nan
nan
nan
nan
-31.3783
-31.4805
-29.8926
-29.8926
-30.4346
-31.8549
-31.8611
-30.9993
-31.6899
-31.186
-31.5829
-30.4722
-31.9127
-31.6899
nan
nan
nan
nan
nan
nan
nan
nan
nan
nan
-31.3381
-30.3165
-29.771
-29.771
-30.9016
-31.7163
-31.4826
-31.0927
-30.7825
-29.9759
-31.0168
-28.8303
-30.7661
-28.8303
-29.3483
-30.5639
-30.3791
-30.8916
-30.7825
-30.6048
-31.0989
-30.7661
-30.2945
-29.327
-31.0989
-30.7661
-31.0765
-31.6949
-30.3561
-31.4826
-31.3312
-30.9607
nan
nan
nan
nan
nan
nan
nan
nan
nan
nan
nan
nan
-61.574
-54.2
-56.2349
-31.7111
-30.4763
-29.9341
-29.9341
-31.9065
-31.0428
-31.5352
-31.2242
-31.9119
-31.9396
-31.8852
-31.8852
-31.6141
-30.5152
-31.4572
-31.6242
-31.7111
-31.0347
-31.0091
-31.2979
-30.2569
-31.2415
-30.6062
-31.0478
-31.0478
-30.6756
-31.0478
-30.9001
-29.6857
-30.7197
-29.149
-30.5548
nan
nan
nan
nan
nan
nan
nan
-55.8895
nan
nan
nan
nan
nan
nan
nan
nan
nan
nan
-52.8488
-74.0526
-63.6326
-74.2289
nan
-52.6066
nan
nan
nan
nan
-65.3759
nan
nan
nan
-71.8499
nan
-31.5118
-31.5118
-31.2111
-31.7325
-30.9067
-31.1805
-31.4086
-30.2292
-29.6667
-29.6667
-29.6661
-31.0091
-29.149
-31.3663
nan
nan
nan
nan
nan
nan
nan
nan
nan
nan
nan
nan
-71.6731
-69.3314
-63.392
-30.1941
-31.562
-31.3409
nan
nan
nan
nan
nan
nan
nan
nan
nan
nan
-31.5185
-31.2031
-30.7151
-31.6004
-31.5979
-31.6327
-31.2397
-31.3851
-31.5567
-30.7544
-31.4069
-30.2252
-31.4366
-31.7598
-31.5348
-30.9366
-31.2105
-29.6977
-31.5348
-31.2334
-29.6977
-30.2608
nan
nan
nan
nan
nan
nan
nan
nan
nan
nan
nan
nan
nan
nan
nan
nan
nan
nan
nan
nan
-30.5013
-31.7368
-31.8523
-31.3523
-30.3378
-29.8061
-31.2805
-31.5299
-31.6366
-31.6366
-31.509
-31.6969
-31.3694
-29.8061
-31.5299
-30.3801
-31.6915
-30.8524
nan
nan
nan
nan
nan
nan
nan
nan
nan
nan
nan
nan
nan
nan
nan
nan
nan
nan
nan
-30.7022
-31.2961
-30.1908
-30.858
-29.6206
-30.145
-30.6772
-31.621
-31.5195
-31.4722
-31.1534
-29.6206
-31.4722
-31.2934
-31.6409
-31.4295
-31.1705
-31.4295
nan
nan
nan
nan
nan
-31.5261
-30.8744
-31.5543
-31.7178
-31.3898
-31.751
-31.7422
-31.3367
-29.8206
-29.8206
-31.3542
-31.5697
-30.3943
-31.6521
-30.3568
nan
nan
nan
nan
nan
nan
nan
nan
nan
nan
nan
nan
nan
nan
nan
nan
-31.087
-31.6521
-31.8861
nan
nan
nan
nan
nan
nan
nan
nan
nan
nan
nan
nan
nan
nan
nan
nan
nan
nan
nan
nan
-31.5056
-31.7235
-31.6634
-30.4719
nan
-31.4024
nan
nan
nan
nan
nan
nan
nan
nan
nan
-31.0003
-30.43
-29.8891
-31.5658
-29.8891
-31.6634
-31.4847
-31.857
-31.8592
nan
-31.891
-31.8397
-31.8397
-31.1852
-31.5677
-30.9154
-30.3238
-31.7335
-31.3571
-31.7424
-29.7906
-31.4225
-31.7848
-31.5792
-31.5792
-30.8132
-30.3699
-29.7906
-31.5525
-30.946
-31.7787
-31.2445
-31.3879
-31.5525
-30.2729
-31.4522
-31.5631
-31.251
-29.7079
-29.7079
-30.2341
-31.2285
-31.6073
-31.6385
nan
nan
nan
nan
nan
nan
nan
nan
nan
-30.8244
-31.6954
-31.6954
-31.4392
-30.4863
-31.3479
-31.4048
-30.7748
nan
nan
nan
nan
nan
nan
nan
nan
nan
nan
nan
nan
nan
nan
nan
nan
nan
nan
nan
nan
nan
nan
nan
nan
nan
nan
nan
nan
nan
nan
nan
nan
nan
nan
nan
nan
nan
nan
nan
nan
-31.4849
-29.6338
-31.1485
-30.1567
-31.3734
-31.4849
-31.4681
-31.163
-31.2835
-30.6939
-31.5196
-29.6338
-31.5727
-31.5822
-31.8459
-30.863
-31.7055
-31.1879
-30.1971
-31.3248
-31.8396
-30.946
-31.5801
-31.8396
-30.5804
-31.5418
-30.0309
-31.8843
-31.8035
-31.6305
-31.9913
-30.7487
-30.0309
-32.084
-30.6216
-31.8459
-31.7586
-31.9562
-31.0377
-31.8035
ITEM: TIMESTEP
100
ITEM: NUMBER OF ATOMS
940
ITEM: BOX BOUNDS pp pp pp
-9.9340681372033814e+01 9.9340681372033814e+01
-1.0000000000000000e+02 1.0000000000000000e+02
-1.0000000000000000e+02 1.0000000000000000e+02
ITEM: ATOMS c_delta_s
nan
nan
nan
nan
nan
nan
nan
nan
nan
nan
nan
nan
nan
nan
nan
nan
nan
nan
nan
nan
-34.1188
-33.9137
-32.8109
-33.5236
-34.1188
-61.6515
-32.2417
-33.6133
-33.2614
-33.6133
-33.2614
-33.6133
-32.6899
-31.6644
-31.0476
-31.0476
nan
nan
nan
nan
nan
nan
nan
-79.3283
nan
nan
nan
nan
nan
nan
nan
nan
nan
-77.8444
nan
nan
nan
nan
nan
nan
-84.4028
nan
-80.834
-79.498
-84.0632
nan
nan
-78.0156
-77.878
-77.6761
-75.7278
-79.4054
-80.9698
-75.3323
-75.4127
nan
nan
nan
nan
nan
nan
nan
nan
nan
-32.7912
-31.642
-32.5041
-32.3296
-31.642
-31.642
-32.9352
-32.7912
nan
nan
nan
-51.2508
nan
-56.4102
-50.6487
nan
nan
nan
nan
nan
nan
-78.1301
nan
nan
-76.64
nan
nan
nan
nan
nan
nan
nan
nan
-78.3614
-79.2652
nan
nan
-70.2801
nan
-80.0329
-78.0396
-73.9391
nan
-72.2422
-70.6044
-80.1058
-77.3693
-75.9796
-76.9682
-69.9901
-74.4288
-75.7982
-77.7453
-77.2221
-80.9205
nan
nan
nan
nan
nan
nan
nan
nan
nan
nan
-33.2077
-32.13
-33.6796
-33.6796
-33.6796
-32.6645
-31.6422
-33.6796
-31.6451
-31.0372
-31.0372
-31.6422
-32.4185
-32.9792
-31.6422
-32.843
-32.843
-32.681
-32.0576
-33.3443
-32.0576
-32.7665
-33.3443
-32.6825
-33.1407
-32.6618
-33.8682
-31.4334
-31.4334
-32.0643
-32.0576
-33.8682
-33.6703
-32.5146
-33.6703
-33.6703
-33.3027
-31.6881
-33.3027
-31.6924
-32.29
-32.4211
-32.8324
-31.6924
-32.8324
-32.9459
-31.6924
-33.3027
-32.7253
-31.0845
-32.2048
-33.5925
-31.0845
-33.5925
-33.6721
-32.5902
-33.9621
-33.9621
-32.9441
-33.4183
-33.9621
-33.6721
-32.645
-31.441
-32.0825
-31.441
-32.0771
-32.0771
-33.4183
-32.0771
-32.6951
-33.1968
-33.5291
-32.1188
-33.5291
-32.8637
-32.5904
-33.5291
-33.1574
-30.9728
-31.5714
-32.7391
-31.5714
-32.7391
-32.3995
-32.3059
-30.9728
-31.5714
-31.5709
-33.1574
nan
nan
nan
nan
nan
nan
nan
nan
nan
nan
-32.4665
-32.7938
-32.3319
-32.7938
-31.6181
-31.6181
-32.9331
-31.6181
nan
nan
nan
nan
nan
nan
nan
nan
nan
nan
-72.4361
-65.0454
-33.2233
-33.5987
-32.6607
-32.1897
-33.5987
-33.2233
-31.0256
-31.6382
-31.0256
-33.5987
-32.0021
-33.0906
-33.0906
-32.0021
-31.3804
-32.0021
-33.824
-33.5823
-33.1709
-32.6797
-31.3804
-33.0067
-32.6621
-32.0021
-32.4969
-33.824
-33.1709
-33.5823
-32.2817
-33.3982
-33.3982
-33.6874
-33.3982
-33.6874
-32.8186
-31.1562
-32.3455
-32.4785
-32.8776
-31.7706
-31.7637
-31.1562
-31.7637
-31.7637
-32.9924
-32.8776
-31.3678
-32.5887
-32.5887
-32.1044
-32.7361
-31.3678
-32.3926
-33.5879
-32.2463
-32.2793
-32.5564
-32.7361
-32.7361
-31.5482
-30.939
-31.5262
-31.9751
-33.4125
-33.4125
-30.7897
-33.4125
-32.384
-32.9236
-33.4125
-31.3891
-30.7897
-31.3678
-33.8992
-33.6725
-33.2768
-32.5763
-33.0918
-32.0845
-32.5571
-33.5879
-33.5879
-33.5879
-31.7611
-31.7611
-33.6352
-33.3714
-31.1468
-33.3714
-32.3638
-32.4975
-31.7611
-32.8889
-33.0171
-33.6352
-31.1468
-32.8066
-32.879
-31.5262
-31.5262
-30.939
-32.8889
-31.7634
-33.3714
-33.2768
-31.4634
-31.4634
-32.0908
-32.0895
-33.6725
-33.8992
-32.7707
-32.0895
-32.0895
-33.1001
-33.1465
-32.118
-31.4954
-32.1225
-33.2884
-33.6934
-31.4954
-33.2102
-32.118
-32.7902
-33.1357
-32.118
-32.7989
-33.2102
-33.9154
-32.608
-33.9154
-33.6934
-33.2884
nan
nan
nan
nan
nan
nan
nan
nan
nan
nan
-32.4766
-32.1895
-31.4416
-32.7642
-32.6305
-31.4416
-31.4416
-32.6305
nan
nan
nan
nan
nan
nan
nan
nan
nan
nan
-33.001
-30.85
-31.4405
-33.4512
-33.4512
-30.85
-33.4512
-33.4512
-32.445
-32.0161
nan
nan
nan
nan
nan
nan
nan
nan
nan
nan
-32.6538
-32.5681
-31.368
-31.368
-31.9866
-33.5868
-33.843
-31.9854
-33.0824
-32.6342
-31.9854
-31.9854
-33.2833
-33.2833
nan
nan
nan
nan
nan
nan
nan
nan
nan
nan
-33.5236
-32.3171
-31.6716
-31.6716
-32.3172
-33.9137
-33.3152
-32.9648
-33.7843
-32.1538
-33.7843
-31.0917
-32.8886
-31.0917
-31.7033
-31.7033
-32.4651
-32.6315
-33.194
-32.7441
-33.7843
-32.7743
-31.7033
-31.7035
-33.2601
-32.8886
-32.3172
-33.2893
-32.3172
-33.3152
-32.9278
-32.5244
nan
nan
nan
nan
nan
nan
nan
nan
nan
nan
-60.0311
-59.858
-33.5868
-55.8807
-58.5163
-33.102
-32.0286
-31.4041
-31.4041
-33.6072
-32.0245
-33.2
-32.6916
-33.8507
-33.0325
-33.2
-33.6072
-32.0245
-32.0245
-32.6977
-33.8507
-33.102
-33.8112
-32.8193
-33.8112
-32.267
-33.8112
-31.7754
-32.9519
-32.9519
-32.5122
-33.0798
-31.7754
-31.7754
-33.3754
-31.1631
-32.5558
-62.9566
-63.7472
-66.4826
-69.8872
-67.7651
nan
-55.2788
-57.0261
-57.2529
-62.838
-64.2892
-61.5905
-60.074
-59.2188
-58.2713
-65.476
-65.3628
-58.3177
-52.5112
-77.5492
-70.5543
-78.2084
-76.0418
-54.5973
nan
-66.3728
-61.67
-71.694
-67.7234
-69.0408
-67.4785
-73.0649
-75.0249
-70.9117
-32.8467
-32.7187
-32.283
-32.7187
-32.3863
-31.552
-31.552
-31.552
-30.9538
-30.9538
-31.775
-33.3754
-31.1631
-33.5119
-61.636
-59.3072
-59.2927
-59.5125
-59.9133
-68.1434
-66.5906
-63.7058
-61.9444
-62.0415
-63.4009
-71.2831
-73.4502
-64.1637
-70.3724
-31.5534
-33.1355
-33.1355
nan
nan
nan
nan
nan
nan
nan
nan
nan
nan
-33.5119
-32.5712
-32.1072
-33.5119
-33.1465
-33.5204
-32.5797
-33.1465
-33.5204
-32.1174
-33.5204
-31.5614
-31.5594
-32.7204
-32.7204
-32.3901
-31.5594
-30.9614
-32.8456
-32.2852
-30.9614
-31.5594
nan
nan
nan
nan
nan
nan
nan
nan
nan
nan
nan
nan
nan
nan
nan
nan
nan
nan
-68.439
-32.4353
-33.4123
-32.6117
-32.1991
-31.413
-30.8273
-31.4213
-32.9638
-32.6117
-32.7415
-31.4213
-33.4123
-32.416
-30.8273
-33.4123
-31.4213
-33.4123
-31.961
nan
nan
nan
nan
nan
nan
nan
nan
nan
nan
nan
nan
nan
nan
nan
nan
nan
nan
nan
-31.562
-31.562
-31.562
-32.3446
-30.9622
-31.5584
-32.0842
-33.5106
-33.5106
-33.139
-32.5808
-30.9622
-33.139
-33.5106
-32.721
-32.8435
-32.3234
-32.721
nan
nan
nan
nan
nan
-33.7592
-32.3826
-33.5036
-33.5036
-33.0203
-33.5036
-33.7592
-32.5674
-31.2541
-31.2541
-31.8675
-31.8675
-31.8675
-32.9949
-31.8691
nan
nan
nan
nan
nan
nan
nan
nan
nan
nan
nan
nan
nan
nan
nan
nan
-32.4902
-32.9949
-33.1069
nan
nan
nan
nan
nan
nan
nan
nan
nan
nan
nan
nan
nan
nan
nan
nan
nan
nan
nan
nan
-32.7581
-33.1465
-33.1795
-32.1077
nan
-32.773
nan
nan
nan
nan
nan
nan
nan
nan
nan
-32.1077
-32.1106
-31.4837
-32.1077
-31.4837
-33.1795
-33.2858
-33.683
-33.9083
nan
-33.1238
-33.683
-33.2858
-32.7901
-33.9083
-32.6013
-31.5359
-33.4815
-32.561
-33.4815
-30.9419
-31.5432
-32.6911
-32.6911
-32.8174
-31.5432
-31.5432
-30.9419
-32.6022
-32.4398
-32.6022
-32.1707
-32.9692
-32.7338
-31.4146
-31.4146
-33.4209
-32.4162
-30.8236
-30.8236
-31.4133
-31.4146
-33.4209
-33.4209
nan
nan
nan
nan
nan
nan
nan
nan
nan
-32.0598
-33.1139
-33.1139
-33.4815
-32.3065
-32.3084
-33.4209
-31.9803
nan
nan
nan
nan
nan
nan
nan
nan
nan
nan
nan
nan
nan
nan
nan
nan
nan
nan
nan
nan
nan
nan
nan
nan
nan
nan
nan
nan
nan
nan
nan
nan
nan
nan
nan
nan
nan
nan
nan
nan
-32.6001
-30.8169
-31.4087
-31.405
-31.4087
-32.731
-33.4078
-32.4068
-32.9591
-31.9682
-33.4078
-30.8169
-33.4078
-32.8649
-33.2572
-32.4312
-32.6001
-32.1727
-31.4087
-33.4078
-33.9954
-32.5057
-33.843
-33.5868
-32.2208
-32.2268
-31.5821
-33.9954
-33.3708
-32.8232
-33.7797
-32.8885
-31.5821
-33.2459
-32.2268
-33.4696
-32.2268
-33.7797
-32.6837
ITEM: TIMESTEP
200
ITEM: NUMBER OF ATOMS
940
ITEM: BOX BOUNDS pp pp pp
-9.9161073465945734e+01 9.9161073465945734e+01
-1.0000000000000000e+02 1.0000000000000000e+02
-1.0000000000000000e+02 1.0000000000000000e+02
ITEM: ATOMS c_delta_s
nan
nan
nan
nan
nan
nan
nan
nan
nan
nan
nan
nan
nan
nan
nan
nan
nan
nan
nan
nan
-33.4094
-33.4094
-31.4873
-33.1036
-33.4094
nan
-31.0433
-33.027
-32.6164
-33.027
-32.6164
-33.027
-32.1277
-31.9622
-30.5947
-30.5947
nan
nan
nan
nan
nan
nan
nan
nan
nan
nan
nan
nan
nan
nan
nan
nan
nan
nan
nan
nan
nan
nan
nan
nan
nan
nan
nan
nan
nan
nan
-72.1831
nan
nan
nan
nan
nan
nan
nan
nan
nan
nan
nan
nan
nan
-69.26
nan
nan
nan
-32.4428
-31.3101
-32.035
-32.3591
-31.3101
-31.3101
-32.5375
-32.4428
nan
-70.2164
nan
nan
nan
nan
nan
nan
nan
-78.1521
-81.5211
nan
-78.9199
-78.66
-81.8685
nan
-79.2572
nan
-77.5696
-79.9456
-79.1387
-79.3831
nan
-78.9786
nan
-81.2199
-82.1224
-77.7115
-77.4815
-73.2045
nan
-78.1169
nan
nan
nan
-69.6809
-66.1404
nan
-78.0156
-77.6691
-71.7967
-74.8685
-67.6215
nan
nan
-79.8944
-80.6949
nan
nan
nan
nan
nan
nan
nan
nan
nan
nan
-32.2493
-30.8229
-32.9076
-32.9076
-32.9076
-32.3953
-31.0077
-32.9076
-31.6371
-30.3134
-30.3134
-31.0077
-32.0929
-32.1889
-31.0077
-32.1515
-32.1515
-31.7995
-31.2201
-32.4522
-31.2201
-32.1605
-32.3522
-32.2051
-32.3522
-32.1425
-33.163
-30.5792
-30.5792
-31.1503
-31.2201
-33.163
-33.163
-31.4338
-33.163
-32.6321
-33.2348
-31.1701
-32.596
-31.2417
-32.1367
-32.2241
-32.4333
-31.2417
-32.4333
-32.4357
-31.2417
-33.2348
-32.684
-30.5914
-31.4195
-33.2348
-30.5914
-33.2348
-33.3757
-32.1648
-33.6927
-33.6927
-32.7541
-33.2618
-33.6927
-33.3757
-32.4079
-31.2498
-31.8555
-31.2498
-31.9208
-31.9208
-33.2618
-31.9208
-32.7469
-33.0662
-33.051
-30.9513
-33.051
-32.3294
-32.5175
-33.051
-32.4208
-30.4612
-31.1641
-32.3174
-31.1641
-32.3174
-32.0242
-32.2369
-30.4612
-31.1641
-31.8131
-33.051
nan
nan
nan
nan
nan
nan
nan
nan
nan
nan
-31.7844
-32.1465
-32.0452
-32.1465
-30.9746
-30.9746
-32.167
-30.9746
nan
nan
nan
nan
nan
nan
nan
nan
nan
nan
nan
nan
-60.658
nan
-32.2097
-32.8515
-32.3244
-30.7625
-32.8515
-32.8515
-30.2797
-31.6081
-30.2797
-32.8515
-31.5988
-32.7377
-32.8153
-31.5988
-30.9271
-31.5988
-33.4635
-33.4635
-33.0251
-32.5397
-30.9271
-32.7377
-32.3616
-31.5255
-31.7172
-33.4635
-32.5146
-33.0251
-31.4641
-33.2464
-32.7099
-33.2464
-33.2464
-33.2464
-32.2249
-30.6843
-32.3121
-32.3498
-32.5328
-31.2557
-31.3418
-30.6843
-31.3418
-31.3418
-32.6129
-32.5328
-30.9614
-32.097
-32.097
-32.0318
-31.8167
-30.9614
-32.097
-32.8317
-31.3781
-32.011
-32.0706
-32.0706
-32.0706
-31.5778
-30.2514
-30.9443
-30.7785
-32.4247
-32.8513
-30.2671
-32.8513
-32.4247
-32.8513
-32.8513
-31.5993
-30.2671
-30.9614
-33.4443
-33.4443
-33.0258
-31.7157
-32.8317
-30.7692
-32.4095
-32.8317
-32.4095
-32.8317
-31.1531
-31.1531
-33.1387
-33.1387
-30.5059
-32.4997
-32.0663
-32.105
-31.1531
-32.3227
-32.3234
-33.1387
-30.5059
-32.5789
-31.7944
-30.9443
-30.9443
-30.2514
-32.3227
-31.0714
-33.1387
-32.5085
-30.9202
-30.9202
-31.5205
-31.5901
-33.0258
-33.4443
-32.3767
-31.5901
-31.5901
-32.7198
-32.7198
-31.4873
-30.7638
-32.1595
-32.3295
-32.8525
-30.7638
-32.6372
-31.4873
-32.4686
-32.5553
-31.4873
-32.2444
-32.5553
-33.2207
-31.263
-33.2207
-33.2207
-32.8525
nan
nan
nan
nan
nan
nan
nan
nan
nan
nan
-31.9936
-32.2273
-31.1458
-32.3125
-32.2943
-31.1458
-31.1458
-32.2943
nan
nan
nan
nan
nan
nan
nan
nan
nan
nan
-32.3983
-30.4438
-31.7956
-33.0354
-33.0354
-30.4438
-33.0354
-33.0354
-32.5092
-30.9351
nan
nan
nan
nan
nan
nan
nan
nan
nan
nan
-32.8027
-32.4501
-32.2531
-30.7028
-30.7028
-32.0917
-32.7531
-33.1745
-31.4231
-32.5254
-32.1575
-31.4231
-31.4231
-32.5254
-32.6063
nan
nan
nan
nan
nan
nan
nan
nan
nan
nan
-32.1755
-32.4363
-31.0156
-31.0156
-31.7594
-33.1036
-32.8033
-32.5519
-33.4026
-32.6736
-33.6429
-31.0306
-32.7454
-31.0306
-31.0306
-31.6343
-32.6001
-32.7454
-33.4026
-33.4026
-33.6429
-31.9737
-31.6343
-31.6241
-33.4026
-32.7454
-31.7594
-32.9971
-31.7594
-32.9971
-32.767
-31.2321
nan
nan
nan
nan
nan
nan
nan
nan
nan
nan
-61.4519
-62.6763
nan
nan
nan
-32.5808
-32.1536
-30.7618
-30.7618
-32.8164
-31.4828
-32.3145
-32.2361
-33.2369
-32.5808
-32.8164
-33.2369
-31.4828
-31.4828
-32.5043
-33.2369
-32.6639
-32.9561
-32.9561
-33.4374
-32.4366
-33.4374
-31.3146
-32.5764
-32.5764
-32.3614
-32.2186
-31.3146
-30.7295
-33.4374
-30.7295
-32.5764
nan
-65.7311
-64.9217
-71.2851
-70.3463
nan
-57.314
-57.92
-60.4119
nan
nan
nan
-63.2163
nan
-62.4615
nan
nan
nan
-54.3498
nan
nan
nan
nan
-57.4679
nan
-69.2859
-62.9115
nan
nan
nan
nan
nan
nan
nan
-32.324
-32.3045
-32.2316
-32.3045
-32.007
-31.1688
-31.1688
-31.1688
-30.464
-30.464
-31.3005
-33.4374
-30.7295
-33.0646
nan
nan
-71.3892
nan
nan
-75.3723
-71.2111
-72.7707
-71.9698
-66.7113
-68.1298
-77.1341
nan
nan
nan
-31.82
-33.0646
-32.4239
nan
nan
nan
nan
nan
nan
nan
nan
nan
nan
-33.0646
-32.5377
-30.9643
-33.0646
-33.0456
-33.0456
-32.5182
-32.4153
-33.0456
-30.941
-33.0456
-31.8138
-31.1628
-32.3141
-32.3141
-32.0206
-31.1628
-30.4591
-32.3304
-32.2397
-30.4591
-31.1628
nan
nan
nan
nan
nan
nan
nan
nan
nan
nan
nan
nan
nan
nan
nan
nan
-32.1403
-33.3584
-32.4599
-32.2827
-31.245
-30.6647
-31.2499
-32.6977
-32.4599
-32.4635
-31.2499
-33.3584
-32.8041
-30.6647
-33.3584
-30.6647
-33.3584
-32.3464
nan
nan
nan
nan
nan
nan
nan
nan
nan
nan
nan
nan
nan
nan
nan
nan
nan
nan
nan
-31.2077
-31.2077
-31.2077
-32.0852
-30.5636
-31.1342
-31.3943
-33.2109
-33.2109
-33.2109
-32.6627
-30.5636
-32.573
-33.2109
-32.3789
-32.3848
-32.1905
-32.3789
nan
nan
nan
nan
nan
-33.3346
-31.5526
-32.8033
-33.3346
-32.3097
-33.3346
-33.3346
-32.3983
-30.7588
-30.7588
-31.4244
-31.4244
-31.4244
-32.6788
-31.345
nan
nan
nan
nan
nan
nan
nan
nan
nan
nan
nan
nan
nan
nan
nan
nan
-32.4071
-32.5974
-32.5974
nan
nan
nan
nan
nan
nan
nan
nan
nan
nan
nan
nan
nan
nan
nan
nan
nan
nan
nan
nan
-32.524
-31.8443
-32.6864
-31.5238
nan
-32.5184
nan
nan
nan
nan
nan
nan
nan
nan
nan
-31.5238
-32.199
-30.8003
-31.5238
-30.8003
-32.5997
-32.3669
-32.8821
-33.2668
nan
-32.5997
-33.2668
-32.8821
-32.286
-33.2668
-31.2856
-31.0992
-33.1784
-32.6336
-33.1784
-30.5298
-31.17
-32.3358
-32.3358
-32.3468
-31.17
-31.17
-30.5298
-32.4387
-32.1297
-32.4387
-32.2482
-32.5855
-32.4452
-31.2445
-31.2445
-33.2315
-32.6895
-30.59
-30.59
-31.1664
-31.2445
-33.2315
-33.2315
nan
nan
nan
nan
nan
nan
nan
nan
nan
-31.3644
-32.5354
-33.1784
-33.1784
-32.0383
-32.1598
-33.2315
-31.3894
nan
nan
nan
nan
nan
nan
nan
nan
nan
nan
nan
nan
nan
nan
nan
nan
nan
nan
nan
nan
nan
nan
nan
nan
nan
nan
nan
nan
nan
nan
nan
nan
nan
nan
nan
nan
nan
nan
nan
nan
-32.5123
-30.7116
-31.3043
-31.2939
-31.3043
-32.5149
-33.4042
-32.8502
-32.7457
-32.3807
-33.4042
-30.7116
-33.4042
-32.5762
-32.7895
-32.2005
-32.5123
-32.3319
-30.7116
-33.4042
-33.569
-31.1726
-33.1745
-33.1745
-31.5868
-31.657
-30.9916
-33.569
-33.1136
-32.5931
-33.1136
-32.4081
-30.9916
-32.7895
-31.657
-32.8749
-31.657
-33.569
-32.7531
ITEM: TIMESTEP
300
ITEM: NUMBER OF ATOMS
940
ITEM: BOX BOUNDS pp pp pp
-9.8910578124312835e+01 9.8910578124312835e+01
-1.0000000000000000e+02 1.0000000000000000e+02
-1.0000000000000000e+02 1.0000000000000000e+02
ITEM: ATOMS c_delta_s
nan
nan
nan
nan
nan
nan
nan
nan
nan
nan
nan
nan
nan
nan
nan
nan
nan
nan
nan
nan
-75.7648
-33.5501
-32.0975
-33.2188
-33.5501
-61.2869
-31.5309
-33.1421
-33.1421
-33.1421
-33.1421
-33.1421
-32.0062
-31.0283
-30.4639
-30.4639
-78.4352
-70.2847
-79.9664
-78.1129
-81.2426
-78.0015
-74.251
-76.5977
-82.5154
-80.013
-83.197
-80.6154
-78.7928
-81.7874
-80.4481
-79.879
-78.5063
-75.0696
-80.3024
-85.938
-80.8293
-82.0917
-79.9898
-83.0049
-82.1143
-80.0206
-79.6478
-80.8852
-82.9817
-75.8789
-75.5743
-76.8866
-73.5597
-75.1087
-78.2529
-77.2847
-80.5767
-73.2225
nan
-78.1394
-74.132
-69.2638
-76.1359
-74.4119
-75.92
-78.5251
-77.2343
-77.9751
-32.2722
-31.0471
-32.4012
-31.9093
-31.0471
-31.0471
-32.4012
-32.2722
-63
nan
-56.2945
nan
nan
nan
-48.1696
nan
nan
-76.6354
-79.1817
-75.5717
-75.3107
-77.6415
-77.7549
-70.673
-77.194
-74.6346
-72.4871
-76.2067
-76.9662
-77.0279
-77.8023
-79.1341
-79.806
-84.2388
-85.0033
-80.57
-76.0219
nan
-80.5868
-83.7058
-81.7401
-72.4645
-78.237
-67.9199
-69.3124
-73.7908
-82.3959
-79.509
-83.0689
-80.7782
-68.8104
-63.4069
-73.1255
-83.0279
-83.7756
nan
nan
nan
nan
nan
nan
nan
nan
nan
nan
-33.1998
-31.5077
-33.1998
-33.1998
-33.1998
-32.7664
-31.067
-32.7664
-31.0542
-30.4795
-30.4795
-31.067
-31.9177
-32.0818
-31.067
-32.1757
-32.1757
-32.1757
-31.1773
-32.3879
-31.1773
-32.0581
-32.3545
-32.0419
-32.3545
-32.7072
-33.2551
-30.5745
-30.5745
-31.154
-31.1773
-33.2551
-33.2551
-31.563
-33.2551
-32.5995
-32.9225
-30.7573
-32.9225
-30.7729
-31.9478
-31.6728
-31.9478
-30.7729
-31.9478
-32.0161
-30.7729
-32.9225
-32.405
-30.1981
-31.2344
-32.9225
-30.1981
-32.9225
-32.5393
-31.5683
-32.8147
-32.2928
-32.1236
-32.3239
-32.8147
-32.1185
-32.0143
-30.5337
-31.1092
-30.5337
-31.6643
-31.1419
-32.4771
-31.6643
-31.9603
-32.3401
-32.6123
-31.3805
-33.0628
-31.9648
-32.6123
-33.0628
-33.0628
-30.3588
-30.9434
-32.0809
-30.9434
-32.0809
-32.0809
-31.8204
-30.3588
-30.9434
-30.9255
-33.0628
nan
nan
nan
nan
nan
nan
nan
nan
nan
nan
-32.2647
-32.2647
-31.9673
-32.2647
-31.0983
-31.0983
-32.1714
nan
nan
nan
nan
nan
nan
nan
nan
nan
nan
nan
nan
-60.2814
-33.2028
-33.2028
-32.7638
-31.5305
-33.2028
-33.2028
-30.5107
-31.0839
-30.5107
-32.7638
-30.8971
-32.069
-32.1021
-30.8971
-30.3124
-30.8971
-32.9831
-32.9831
-32.3245
-31.773
-30.3124
-32.069
-31.7205
-30.8741
-31.3583
-32.9831
-32.4295
-32.9831
-31.2729
-32.9137
-32.9137
-32.9137
-32.9137
-32.9137
-32.3691
-30.1995
-31.9769
-31.6609
-31.9769
-30.752
-30.7724
-30.1995
-30.7724
-30.7724
-32.0301
-31.9769
-31.5159
-32.5362
-32.5362
-32.3027
-32.1674
-31.5159
-32.5362
-33.4724
-31.6011
-32.2037
-32.4385
-32.4385
-32.4385
-31.3988
-30.799
-31.4034
-31.9196
-33.3089
-33.3089
-30.9039
-33.58
-33.3089
-33.58
-33.58
-31.5091
-30.9039
-31.5159
-33.0676
-33.0676
-32.5399
-31.5366
-33.4724
-31.8153
-33.1815
-33.1815
-33.1815
-33.4724
-31.1637
-31.1637
-33.2036
-33.2036
-30.5717
-32.6262
-32.1064
-31.9874
-31.1637
-32.3263
-32.4384
-33.2036
-30.5717
-32.1429
-32.0556
-31.4034
-31.4034
-30.799
-32.3263
-31.1612
-33.2036
-32.0333
-30.4762
-30.4762
-31.0466
-31.0669
-33.0676
-33.0676
-32.0157
-31.0669
-31.0669
-32.2239
-32.2239
-31.3223
-30.7266
-31.308
-32.3098
-32.838
-30.7266
-32.6189
-31.3223
-32.1569
-32.5062
-31.3223
-32.1093
-32.5062
-33.2399
-31.7649
-33.2399
-33.2399
-32.838
nan
nan
nan
nan
nan
nan
nan
nan
nan
nan
-32.1326
-31.8723
-31.0112
-32.0248
-32.1326
-31.0112
-31.0112
-32.1326
nan
nan
nan
nan
nan
nan
nan
nan
nan
nan
-33.1392
-30.4229
-30.995
-33.1392
-33.1392
-30.4229
-32.6983
-33.1392
-32.6983
-31.4478
nan
nan
nan
nan
nan
nan
nan
nan
nan
nan
-32.3361
-31.0983
-31.4134
-31.8903
-32.0155
-30.4553
-30.4553
-31.0226
-33.0881
-33.0881
-31.0369
-32.2068
-31.9619
-31.0369
-31.0369
-32.2068
-32.3205
nan
nan
nan
nan
nan
nan
nan
nan
nan
nan
-32.6516
-31.6069
-31.0192
-31.0192
-31.6348
-33.2188
-32.789
-32.4114
-34.1908
-32.4979
-34.1908
-31.5644
-33.0647
-31.5644
-32.2213
-32.2213
-32.9194
-33.0647
-34.1908
-34.1908
-34.1908
-32.2213
-32.2213
-32.2167
-34.1908
-33.0647
-31.6348
-32.789
-31.6348
-32.9121
-32.3981
-31.5168
nan
nan
nan
nan
nan
nan
nan
nan
nan
nan
nan
nan
nan
nan
nan
-32.207
-31.034
-30.4642
-30.4642
-33.084
-31.052
-32.0254
-31.9814
-33.084
-32.207
-32.5174
-33.084
-31.052
-31.052
-31.9017
-33.084
-32.317
-33.0833
-32.6463
-32.6463
-31.3805
-33.0833
-30.9744
-32.0978
-32.0978
-31.8432
-31.9935
-30.9744
-30.9744
-33.0833
-30.3834
-32.0978
-32.0977
nan
nan
nan
nan
nan
nan
-50.7182
nan
nan
nan
nan
nan
nan
nan
nan
nan
nan
nan
-73.8683
-68.1894
-76.268
-71.7261
-49.3126
nan
nan
nan
nan
nan
nan
nan
nan
nan
nan
-32.0667
-32.1754
-31.9177
-32.1754
-32.1754
-31.0445
-31.0445
-31.0445
-30.4513
-30.4513
-30.9519
-33.0833
-30.3834
-33.1603
nan
nan
nan
nan
nan
nan
nan
-67.2522
-63.1979
-62.0946
-71.0595
-73.6375
-69.3779
-66.2739
-64.9709
-31.0228
-33.1603
-33.1603
nan
nan
nan
nan
nan
nan
nan
nan
nan
nan
-33.1603
-32.7209
-31.4576
-32.7209
-33.1384
-32.6919
-32.6919
-33.1384
-33.1384
-31.4448
-33.1384
-30.9952
-31.0143
-32.1456
-32.1456
-32.1456
-31.0143
-30.4248
-32.0317
-31.8802
-30.4248
-31.0143
nan
nan
nan
nan
nan
nan
nan
nan
nan
nan
nan
nan
nan
nan
nan
-33.5501
nan
nan
-32.0977
-33.1053
-32.0977
-31.8393
-30.9644
-30.3949
-30.9784
-33.1053
-32.4999
-31.9914
-30.9784
-33.1053
-32.6628
-30.3949
-33.1053
-30.9784
-32.6628
-31.4261
nan
nan
nan
nan
nan
nan
nan
nan
nan
nan
nan
nan
nan
nan
nan
nan
nan
nan
nan
-31.0303
-31.0303
-31.0303
-32.166
-30.4398
-31.0096
-31.4556
-32.698
-33.1555
-33.1555
-32.698
-30.4398
-33.1555
-33.1555
-32.166
-32.046
-31.9074
-32.166
nan
nan
nan
nan
nan
-32.8843
-31.2256
-32.8843
-32.8843
-32.3458
-32.8843
-32.8843
-31.6422
-30.1697
-30.1697
-30.742
-30.742
-30.742
-31.998
-30.7224
nan
nan
nan
nan
nan
nan
nan
nan
nan
nan
nan
nan
nan
nan
nan
nan
-31.9463
-31.9463
-31.9463
nan
nan
nan
nan
nan
nan
nan
nan
nan
nan
nan
nan
nan
nan
nan
nan
nan
nan
nan
nan
-31.9066
-31.4729
-32.4212
-31.1334
nan
-31.9807
nan
nan
nan
nan
nan
nan
nan
nan
nan
-31.1334
-31.1143
-30.5421
-31.1334
-30.5421
-32.3049
-32.1049
-33.1329
-33.1329
nan
-32.3049
-33.1329
-32.6129
-32.1019
-33.1329
-31.5957
-30.9718
-33.1086
-32.6515
-32.6515
-30.4032
-30.9892
-32.1271
-32.1271
-32.0075
-30.9892
-30.9892
-30.4032
-32.0948
-32.0948
-32.0948
-31.8418
-33.1033
-31.9864
-30.9763
-30.9763
-33.1033
-32.661
-30.39
-30.39
-30.9592
-30.9763
-33.1033
-32.661
nan
nan
nan
nan
nan
nan
nan
nan
nan
-31.4318
-33.1086
-33.1086
-33.1086
-32.1271
-31.8598
-33.1033
-32.9562
nan
nan
nan
nan
nan
nan
nan
nan
nan
nan
nan
nan
nan
nan
nan
nan
nan
nan
nan
nan
nan
nan
nan
nan
nan
nan
nan
nan
nan
nan
nan
nan
nan
nan
nan
nan
nan
nan
nan
nan
-32.1276
-30.4235
-31.0152
-30.9941
-31.0152
-32.0193
-33.1431
-32.7009
-33.1431
-31.4375
-33.1431
-30.4235
-32.7009
-31.9073
-32.2054
-32.1276
-32.1276
-31.8831
-31.0152
-33.1431
-32.9562
-31.5134
-33.0881
-33.0881
-31.0323
-31.0518
-30.4567
-32.9562
-32.5336
-32.0227
-32.5336
-31.7993
-30.4567
-32.2054
-31.0518
-32.314
-31.0518
ITEM: TIMESTEP
400
ITEM: NUMBER OF ATOMS
940
ITEM: BOX BOUNDS pp pp pp
-9.8687182399773405e+01 9.8687182399773405e+01
-1.0000000000000000e+02 1.0000000000000000e+02
-1.0000000000000000e+02 1.0000000000000000e+02
ITEM: ATOMS c_delta_s
nan
nan
nan
nan
nan
nan
nan
nan
nan
nan
nan
nan
nan
nan
nan
nan
nan
nan
nan
nan
nan
-32.3581
-31.2288
-31.9962
-32.4428
-62.2656
-30.6686
-31.9201
-31.9201
-32.0307
-32.0307
-32.0307
-31.5357
-30.0462
-29.5133
-29.5133
-77.4113
-64.0397
-77.3995
-77.0174
-79.8845
-78.171
nan
nan
-80.8242
-81.3832
-81.4476
-79.8946
-79.9653
nan
-76.6189
nan
nan
-77.3138
nan
nan
nan
-80.3017
nan
-81.4567
nan
nan
nan
nan
nan
nan
nan
nan
nan
nan
nan
nan
nan
nan
-65.5936
-76.9561
-71.912
nan
nan
-71.5166
nan
nan
-75.841
-76.9291
-31.3349
-30.0488
-31.3349
-30.9401
-30.0488
-30.652
-31.4384
-31.3349
-76.3203
nan
-59.595
-51.242
-61.1154
-56.0931
-56.8465
nan
nan
nan
nan
nan
nan
nan
-80.291
-73.3609
-77.866
-77.3118
-74.8862
-78.6561
nan
-77.9768
-78.7571
-78.9771
-79.8993
-84.9644
-85.1963
-80.9148
-76.3598
nan
-78.4407
-83.164
nan
nan
nan
nan
nan
nan
-82.9275
-78.8792
-85.4058
-80.503
nan
-65.7296
nan
-81.6201
-82.8504
nan
nan
nan
nan
nan
nan
nan
nan
nan
nan
-32.7569
-31.1888
-32.7569
-32.7569
-32.7569
-32.4067
-30.7391
-32.4067
-30.7477
-30.1576
-30.1576
-30.7391
-31.558
-31.8619
-30.7391
-31.8586
-31.8586
-31.8586
-30.5879
-31.6759
-30.5879
-31.4374
-31.739
-31.739
-31.739
-32.2032
-32.2032
-30.0164
-30.0164
-30.5715
-30.5879
-32.6448
-32.6448
-31.0995
-32.6448
-32.6448
-31.7668
-29.9494
-31.7326
-30.4097
-31.2307
-30.8504
-31.2307
-29.9457
-31.2307
-31.2762
-31.0841
-31.7326
-31.4262
-29.4144
-30.5537
-31.4262
-29.4144
-31.3506
-32.2156
-31.4036
-32.4367
-32.128
-31.7509
-32.0235
-32.5463
-32.2156
-31.7058
-30.2084
-30.7584
-30.2084
-31.2701
-30.7699
-32.1776
-31.5559
-31.5581
-32.0235
-31.6076
-30.6685
-31.462
-31.3568
-31.6076
-31.8361
-31.9561
-29.5447
-30.7947
-31.3231
-30.0837